VARIABLES = "X", "Y", "T"
ZONE T = "BLOCK1", I = 128, J = 128, F = POINT

0.000000 	 0.000000 	 1.000000 
0.000000 	 0.007812 	 1.000000 
0.000000 	 0.015625 	 1.000000 
0.000000 	 0.023438 	 1.000000 
0.000000 	 0.031250 	 1.000000 
0.000000 	 0.039062 	 1.000000 
0.000000 	 0.046875 	 1.000000 
0.000000 	 0.054688 	 1.000000 
0.000000 	 0.062500 	 1.000000 
0.000000 	 0.070312 	 1.000000 
0.000000 	 0.078125 	 1.000000 
0.000000 	 0.085938 	 1.000000 
0.000000 	 0.093750 	 1.000000 
0.000000 	 0.101562 	 1.000000 
0.000000 	 0.109375 	 1.000000 
0.000000 	 0.117188 	 1.000000 
0.000000 	 0.125000 	 1.000000 
0.000000 	 0.132812 	 1.000000 
0.000000 	 0.140625 	 1.000000 
0.000000 	 0.148438 	 1.000000 
0.000000 	 0.156250 	 1.000000 
0.000000 	 0.164062 	 1.000000 
0.000000 	 0.171875 	 1.000000 
0.000000 	 0.179688 	 1.000000 
0.000000 	 0.187500 	 1.000000 
0.000000 	 0.195312 	 1.000000 
0.000000 	 0.203125 	 1.000000 
0.000000 	 0.210938 	 1.000000 
0.000000 	 0.218750 	 1.000000 
0.000000 	 0.226562 	 1.000000 
0.000000 	 0.234375 	 1.000000 
0.000000 	 0.242188 	 1.000000 
0.000000 	 0.250000 	 1.000000 
0.000000 	 0.257812 	 1.000000 
0.000000 	 0.265625 	 1.000000 
0.000000 	 0.273438 	 1.000000 
0.000000 	 0.281250 	 1.000000 
0.000000 	 0.289062 	 1.000000 
0.000000 	 0.296875 	 1.000000 
0.000000 	 0.304688 	 1.000000 
0.000000 	 0.312500 	 1.000000 
0.000000 	 0.320312 	 1.000000 
0.000000 	 0.328125 	 1.000000 
0.000000 	 0.335938 	 1.000000 
0.000000 	 0.343750 	 1.000000 
0.000000 	 0.351562 	 1.000000 
0.000000 	 0.359375 	 1.000000 
0.000000 	 0.367188 	 1.000000 
0.000000 	 0.375000 	 1.000000 
0.000000 	 0.382812 	 1.000000 
0.000000 	 0.390625 	 1.000000 
0.000000 	 0.398438 	 1.000000 
0.000000 	 0.406250 	 1.000000 
0.000000 	 0.414062 	 1.000000 
0.000000 	 0.421875 	 1.000000 
0.000000 	 0.429688 	 1.000000 
0.000000 	 0.437500 	 1.000000 
0.000000 	 0.445312 	 1.000000 
0.000000 	 0.453125 	 1.000000 
0.000000 	 0.460938 	 1.000000 
0.000000 	 0.468750 	 1.000000 
0.000000 	 0.476562 	 1.000000 
0.000000 	 0.484375 	 1.000000 
0.000000 	 0.492188 	 1.000000 
0.000000 	 0.500000 	 1.000000 
0.000000 	 0.507812 	 1.000000 
0.000000 	 0.515625 	 1.000000 
0.000000 	 0.523438 	 1.000000 
0.000000 	 0.531250 	 1.000000 
0.000000 	 0.539062 	 1.000000 
0.000000 	 0.546875 	 1.000000 
0.000000 	 0.554688 	 1.000000 
0.000000 	 0.562500 	 1.000000 
0.000000 	 0.570312 	 1.000000 
0.000000 	 0.578125 	 1.000000 
0.000000 	 0.585938 	 1.000000 
0.000000 	 0.593750 	 1.000000 
0.000000 	 0.601562 	 1.000000 
0.000000 	 0.609375 	 1.000000 
0.000000 	 0.617188 	 1.000000 
0.000000 	 0.625000 	 1.000000 
0.000000 	 0.632812 	 1.000000 
0.000000 	 0.640625 	 1.000000 
0.000000 	 0.648438 	 1.000000 
0.000000 	 0.656250 	 1.000000 
0.000000 	 0.664062 	 1.000000 
0.000000 	 0.671875 	 1.000000 
0.000000 	 0.679688 	 1.000000 
0.000000 	 0.687500 	 1.000000 
0.000000 	 0.695312 	 1.000000 
0.000000 	 0.703125 	 1.000000 
0.000000 	 0.710938 	 1.000000 
0.000000 	 0.718750 	 1.000000 
0.000000 	 0.726562 	 1.000000 
0.000000 	 0.734375 	 1.000000 
0.000000 	 0.742188 	 1.000000 
0.000000 	 0.750000 	 1.000000 
0.000000 	 0.757812 	 1.000000 
0.000000 	 0.765625 	 1.000000 
0.000000 	 0.773438 	 1.000000 
0.000000 	 0.781250 	 1.000000 
0.000000 	 0.789062 	 1.000000 
0.000000 	 0.796875 	 1.000000 
0.000000 	 0.804688 	 1.000000 
0.000000 	 0.812500 	 1.000000 
0.000000 	 0.820312 	 1.000000 
0.000000 	 0.828125 	 1.000000 
0.000000 	 0.835938 	 1.000000 
0.000000 	 0.843750 	 1.000000 
0.000000 	 0.851562 	 1.000000 
0.000000 	 0.859375 	 1.000000 
0.000000 	 0.867188 	 1.000000 
0.000000 	 0.875000 	 1.000000 
0.000000 	 0.882812 	 1.000000 
0.000000 	 0.890625 	 1.000000 
0.000000 	 0.898438 	 1.000000 
0.000000 	 0.906250 	 1.000000 
0.000000 	 0.914062 	 1.000000 
0.000000 	 0.921875 	 1.000000 
0.000000 	 0.929688 	 1.000000 
0.000000 	 0.937500 	 1.000000 
0.000000 	 0.945312 	 1.000000 
0.000000 	 0.953125 	 1.000000 
0.000000 	 0.960938 	 1.000000 
0.000000 	 0.968750 	 1.000000 
0.000000 	 0.976562 	 1.000000 
0.000000 	 0.984375 	 1.000000 
0.000000 	 0.992188 	 1.000000 
0.000000 	 1.000000 	 1.000000 
0.007812 	 0.000000 	 0.000000 
0.007812 	 0.007812 	 0.499933 
0.007812 	 0.015625 	 0.697519 
0.007812 	 0.023438 	 0.790410 
0.007812 	 0.031250 	 0.841237 
0.007812 	 0.039062 	 0.872540 
0.007812 	 0.046875 	 0.893569 
0.007812 	 0.054688 	 0.908618 
0.007812 	 0.062500 	 0.919902 
0.007812 	 0.070312 	 0.928669 
0.007812 	 0.078125 	 0.935671 
0.007812 	 0.085938 	 0.941388 
0.007812 	 0.093750 	 0.946142 
0.007812 	 0.101562 	 0.950153 
0.007812 	 0.109375 	 0.953581 
0.007812 	 0.117188 	 0.956543 
0.007812 	 0.125000 	 0.959126 
0.007812 	 0.132812 	 0.961396 
0.007812 	 0.140625 	 0.963405 
0.007812 	 0.148438 	 0.965195 
0.007812 	 0.156250 	 0.966799 
0.007812 	 0.164062 	 0.968242 
0.007812 	 0.171875 	 0.969547 
0.007812 	 0.179688 	 0.970732 
0.007812 	 0.187500 	 0.971811 
0.007812 	 0.195312 	 0.972797 
0.007812 	 0.203125 	 0.973701 
0.007812 	 0.210938 	 0.974531 
0.007812 	 0.218750 	 0.975296 
0.007812 	 0.226562 	 0.976002 
0.007812 	 0.234375 	 0.976655 
0.007812 	 0.242188 	 0.977259 
0.007812 	 0.250000 	 0.977820 
0.007812 	 0.257812 	 0.978341 
0.007812 	 0.265625 	 0.978826 
0.007812 	 0.273438 	 0.979276 
0.007812 	 0.281250 	 0.979696 
0.007812 	 0.289062 	 0.980088 
0.007812 	 0.296875 	 0.980453 
0.007812 	 0.304688 	 0.980793 
0.007812 	 0.312500 	 0.981111 
0.007812 	 0.320312 	 0.981407 
0.007812 	 0.328125 	 0.981683 
0.007812 	 0.335938 	 0.981940 
0.007812 	 0.343750 	 0.982180 
0.007812 	 0.351562 	 0.982403 
0.007812 	 0.359375 	 0.982610 
0.007812 	 0.367188 	 0.982802 
0.007812 	 0.375000 	 0.982980 
0.007812 	 0.382812 	 0.983144 
0.007812 	 0.390625 	 0.983295 
0.007812 	 0.398438 	 0.983433 
0.007812 	 0.406250 	 0.983560 
0.007812 	 0.414062 	 0.983675 
0.007812 	 0.421875 	 0.983779 
0.007812 	 0.429688 	 0.983872 
0.007812 	 0.437500 	 0.983954 
0.007812 	 0.445312 	 0.984026 
0.007812 	 0.453125 	 0.984088 
0.007812 	 0.460938 	 0.984141 
0.007812 	 0.468750 	 0.984183 
0.007812 	 0.476562 	 0.984216 
0.007812 	 0.484375 	 0.984239 
0.007812 	 0.492188 	 0.984253 
0.007812 	 0.500000 	 0.984258 
0.007812 	 0.507812 	 0.984253 
0.007812 	 0.515625 	 0.984239 
0.007812 	 0.523438 	 0.984216 
0.007812 	 0.531250 	 0.984183 
0.007812 	 0.539062 	 0.984141 
0.007812 	 0.546875 	 0.984088 
0.007812 	 0.554688 	 0.984026 
0.007812 	 0.562500 	 0.983954 
0.007812 	 0.570312 	 0.983872 
0.007812 	 0.578125 	 0.983779 
0.007812 	 0.585938 	 0.983675 
0.007812 	 0.593750 	 0.983560 
0.007812 	 0.601562 	 0.983433 
0.007812 	 0.609375 	 0.983295 
0.007812 	 0.617188 	 0.983144 
0.007812 	 0.625000 	 0.982980 
0.007812 	 0.632812 	 0.982802 
0.007812 	 0.640625 	 0.982610 
0.007812 	 0.648438 	 0.982403 
0.007812 	 0.656250 	 0.982180 
0.007812 	 0.664062 	 0.981940 
0.007812 	 0.671875 	 0.981683 
0.007812 	 0.679688 	 0.981407 
0.007812 	 0.687500 	 0.981111 
0.007812 	 0.695312 	 0.980793 
0.007812 	 0.703125 	 0.980453 
0.007812 	 0.710938 	 0.980088 
0.007812 	 0.718750 	 0.979696 
0.007812 	 0.726562 	 0.979276 
0.007812 	 0.734375 	 0.978826 
0.007812 	 0.742188 	 0.978341 
0.007812 	 0.750000 	 0.977820 
0.007812 	 0.757812 	 0.977259 
0.007812 	 0.765625 	 0.976655 
0.007812 	 0.773438 	 0.976002 
0.007812 	 0.781250 	 0.975296 
0.007812 	 0.789062 	 0.974531 
0.007812 	 0.796875 	 0.973701 
0.007812 	 0.804688 	 0.972797 
0.007812 	 0.812500 	 0.971811 
0.007812 	 0.820312 	 0.970732 
0.007812 	 0.828125 	 0.969547 
0.007812 	 0.835938 	 0.968242 
0.007812 	 0.843750 	 0.966799 
0.007812 	 0.851562 	 0.965195 
0.007812 	 0.859375 	 0.963405 
0.007812 	 0.867188 	 0.961396 
0.007812 	 0.875000 	 0.959126 
0.007812 	 0.882812 	 0.956543 
0.007812 	 0.890625 	 0.953581 
0.007812 	 0.898438 	 0.950153 
0.007812 	 0.906250 	 0.946142 
0.007812 	 0.914062 	 0.941388 
0.007812 	 0.921875 	 0.935671 
0.007812 	 0.929688 	 0.928669 
0.007812 	 0.937500 	 0.919902 
0.007812 	 0.945312 	 0.908618 
0.007812 	 0.953125 	 0.893569 
0.007812 	 0.960938 	 0.872540 
0.007812 	 0.968750 	 0.841237 
0.007812 	 0.976562 	 0.790410 
0.007812 	 0.984375 	 0.697519 
0.007812 	 0.992188 	 0.499933 
0.007812 	 1.000000 	 0.000000 
0.015625 	 0.000000 	 0.000000 
0.015625 	 0.007812 	 0.302214 
0.015625 	 0.015625 	 0.499733 
0.015625 	 0.023438 	 0.622885 
0.015625 	 0.031250 	 0.701999 
0.015625 	 0.039062 	 0.755353 
0.015625 	 0.046875 	 0.793117 
0.015625 	 0.054688 	 0.821000 
0.015625 	 0.062500 	 0.842322 
0.015625 	 0.070312 	 0.859103 
0.015625 	 0.078125 	 0.872627 
0.015625 	 0.085938 	 0.883741 
0.015625 	 0.093750 	 0.893025 
0.015625 	 0.101562 	 0.900889 
0.015625 	 0.109375 	 0.907629 
0.015625 	 0.117188 	 0.913465 
0.015625 	 0.125000 	 0.918564 
0.015625 	 0.132812 	 0.923052 
0.015625 	 0.140625 	 0.927030 
0.015625 	 0.148438 	 0.930577 
0.015625 	 0.156250 	 0.933758 
0.015625 	 0.164062 	 0.936623 
0.015625 	 0.171875 	 0.939215 
0.015625 	 0.179688 	 0.941569 
0.015625 	 0.187500 	 0.943715 
0.015625 	 0.195312 	 0.945676 
0.015625 	 0.203125 	 0.947475 
0.015625 	 0.210938 	 0.949128 
0.015625 	 0.218750 	 0.950651 
0.015625 	 0.226562 	 0.952057 
0.015625 	 0.234375 	 0.953358 
0.015625 	 0.242188 	 0.954562 
0.015625 	 0.250000 	 0.955680 
0.015625 	 0.257812 	 0.956719 
0.015625 	 0.265625 	 0.957685 
0.015625 	 0.273438 	 0.958584 
0.015625 	 0.281250 	 0.959421 
0.015625 	 0.289062 	 0.960202 
0.015625 	 0.296875 	 0.960930 
0.015625 	 0.304688 	 0.961609 
0.015625 	 0.312500 	 0.962243 
0.015625 	 0.320312 	 0.962834 
0.015625 	 0.328125 	 0.963385 
0.015625 	 0.335938 	 0.963898 
0.015625 	 0.343750 	 0.964376 
0.015625 	 0.351562 	 0.964821 
0.015625 	 0.359375 	 0.965235 
0.015625 	 0.367188 	 0.965618 
0.015625 	 0.375000 	 0.965973 
0.015625 	 0.382812 	 0.966300 
0.015625 	 0.390625 	 0.966602 
0.015625 	 0.398438 	 0.966879 
0.015625 	 0.406250 	 0.967132 
0.015625 	 0.414062 	 0.967361 
0.015625 	 0.421875 	 0.967569 
0.015625 	 0.429688 	 0.967754 
0.015625 	 0.437500 	 0.967919 
0.015625 	 0.445312 	 0.968063 
0.015625 	 0.453125 	 0.968187 
0.015625 	 0.460938 	 0.968291 
0.015625 	 0.468750 	 0.968376 
0.015625 	 0.476562 	 0.968441 
0.015625 	 0.484375 	 0.968488 
0.015625 	 0.492188 	 0.968516 
0.015625 	 0.500000 	 0.968525 
0.015625 	 0.507812 	 0.968516 
0.015625 	 0.515625 	 0.968488 
0.015625 	 0.523438 	 0.968441 
0.015625 	 0.531250 	 0.968376 
0.015625 	 0.539062 	 0.968291 
0.015625 	 0.546875 	 0.968187 
0.015625 	 0.554688 	 0.968063 
0.015625 	 0.562500 	 0.967919 
0.015625 	 0.570312 	 0.967754 
0.015625 	 0.578125 	 0.967569 
0.015625 	 0.585938 	 0.967361 
0.015625 	 0.593750 	 0.967132 
0.015625 	 0.601562 	 0.966879 
0.015625 	 0.609375 	 0.966602 
0.015625 	 0.617188 	 0.966300 
0.015625 	 0.625000 	 0.965973 
0.015625 	 0.632812 	 0.965618 
0.015625 	 0.640625 	 0.965235 
0.015625 	 0.648438 	 0.964821 
0.015625 	 0.656250 	 0.964376 
0.015625 	 0.664062 	 0.963898 
0.015625 	 0.671875 	 0.963385 
0.015625 	 0.679688 	 0.962834 
0.015625 	 0.687500 	 0.962243 
0.015625 	 0.695312 	 0.961609 
0.015625 	 0.703125 	 0.960930 
0.015625 	 0.710938 	 0.960202 
0.015625 	 0.718750 	 0.959421 
0.015625 	 0.726562 	 0.958584 
0.015625 	 0.734375 	 0.957685 
0.015625 	 0.742188 	 0.956719 
0.015625 	 0.750000 	 0.955680 
0.015625 	 0.757812 	 0.954562 
0.015625 	 0.765625 	 0.953358 
0.015625 	 0.773438 	 0.952057 
0.015625 	 0.781250 	 0.950651 
0.015625 	 0.789062 	 0.949128 
0.015625 	 0.796875 	 0.947475 
0.015625 	 0.804688 	 0.945676 
0.015625 	 0.812500 	 0.943715 
0.015625 	 0.820312 	 0.941569 
0.015625 	 0.828125 	 0.939215 
0.015625 	 0.835938 	 0.936623 
0.015625 	 0.843750 	 0.933758 
0.015625 	 0.851562 	 0.930577 
0.015625 	 0.859375 	 0.927030 
0.015625 	 0.867188 	 0.923052 
0.015625 	 0.875000 	 0.918564 
0.015625 	 0.882812 	 0.913465 
0.015625 	 0.890625 	 0.907629 
0.015625 	 0.898438 	 0.900889 
0.015625 	 0.906250 	 0.893025 
0.015625 	 0.914062 	 0.883741 
0.015625 	 0.921875 	 0.872627 
0.015625 	 0.929688 	 0.859103 
0.015625 	 0.937500 	 0.842322 
0.015625 	 0.945312 	 0.821000 
0.015625 	 0.953125 	 0.793117 
0.015625 	 0.960938 	 0.755353 
0.015625 	 0.968750 	 0.701999 
0.015625 	 0.976562 	 0.622885 
0.015625 	 0.984375 	 0.499733 
0.015625 	 0.992188 	 0.302214 
0.015625 	 1.000000 	 0.000000 
0.023438 	 0.000000 	 0.000000 
0.023438 	 0.007812 	 0.209189 
0.023438 	 0.015625 	 0.376313 
0.023438 	 0.023438 	 0.499399 
0.023438 	 0.031250 	 0.588521 
0.023438 	 0.039062 	 0.653755 
0.023438 	 0.046875 	 0.702548 
0.023438 	 0.054688 	 0.739942 
0.023438 	 0.062500 	 0.769282 
0.023438 	 0.070312 	 0.792794 
0.023438 	 0.078125 	 0.811992 
0.023438 	 0.085938 	 0.827922 
0.023438 	 0.093750 	 0.841329 
0.023438 	 0.101562 	 0.852749 
0.023438 	 0.109375 	 0.862581 
0.023438 	 0.117188 	 0.871126 
0.023438 	 0.125000 	 0.878612 
0.023438 	 0.132812 	 0.885218 
0.023438 	 0.140625 	 0.891085 
0.023438 	 0.148438 	 0.896326 
0.023438 	 0.156250 	 0.901032 
0.023438 	 0.164062 	 0.905276 
0.023438 	 0.171875 	 0.909120 
0.023438 	 0.179688 	 0.912615 
0.023438 	 0.187500 	 0.915802 
0.023438 	 0.195312 	 0.918719 
0.023438 	 0.203125 	 0.921394 
0.023438 	 0.210938 	 0.923855 
0.023438 	 0.218750 	 0.926123 
0.023438 	 0.226562 	 0.928218 
0.023438 	 0.234375 	 0.930156 
0.023438 	 0.242188 	 0.931953 
0.023438 	 0.250000 	 0.933620 
0.023438 	 0.257812 	 0.935169 
0.023438 	 0.265625 	 0.936611 
0.023438 	 0.273438 	 0.937953 
0.023438 	 0.281250 	 0.939203 
0.023438 	 0.289062 	 0.940369 
0.023438 	 0.296875 	 0.941456 
0.023438 	 0.304688 	 0.942471 
0.023438 	 0.312500 	 0.943418 
0.023438 	 0.320312 	 0.944301 
0.023438 	 0.328125 	 0.945124 
0.023438 	 0.335938 	 0.945892 
0.023438 	 0.343750 	 0.946606 
0.023438 	 0.351562 	 0.947271 
0.023438 	 0.359375 	 0.947889 
0.023438 	 0.367188 	 0.948463 
0.023438 	 0.375000 	 0.948993 
0.023438 	 0.382812 	 0.949483 
0.023438 	 0.390625 	 0.949934 
0.023438 	 0.398438 	 0.950348 
0.023438 	 0.406250 	 0.950726 
0.023438 	 0.414062 	 0.951070 
0.023438 	 0.421875 	 0.951380 
0.023438 	 0.429688 	 0.951658 
0.023438 	 0.437500 	 0.951904 
0.023438 	 0.445312 	 0.952119 
0.023438 	 0.453125 	 0.952305 
0.023438 	 0.460938 	 0.952460 
0.023438 	 0.468750 	 0.952587 
0.023438 	 0.476562 	 0.952686 
0.023438 	 0.484375 	 0.952756 
0.023438 	 0.492188 	 0.952798 
0.023438 	 0.500000 	 0.952812 
0.023438 	 0.507812 	 0.952798 
0.023438 	 0.515625 	 0.952756 
0.023438 	 0.523438 	 0.952686 
0.023438 	 0.531250 	 0.952587 
0.023438 	 0.539062 	 0.952460 
0.023438 	 0.546875 	 0.952305 
0.023438 	 0.554688 	 0.952119 
0.023438 	 0.562500 	 0.951904 
0.023438 	 0.570312 	 0.951658 
0.023438 	 0.578125 	 0.951380 
0.023438 	 0.585938 	 0.951070 
0.023438 	 0.593750 	 0.950726 
0.023438 	 0.601562 	 0.950348 
0.023438 	 0.609375 	 0.949934 
0.023438 	 0.617188 	 0.949483 
0.023438 	 0.625000 	 0.948993 
0.023438 	 0.632812 	 0.948463 
0.023438 	 0.640625 	 0.947889 
0.023438 	 0.648438 	 0.947271 
0.023438 	 0.656250 	 0.946606 
0.023438 	 0.664062 	 0.945892 
0.023438 	 0.671875 	 0.945124 
0.023438 	 0.679688 	 0.944301 
0.023438 	 0.687500 	 0.943418 
0.023438 	 0.695312 	 0.942471 
0.023438 	 0.703125 	 0.941456 
0.023438 	 0.710938 	 0.940369 
0.023438 	 0.718750 	 0.939203 
0.023438 	 0.726562 	 0.937953 
0.023438 	 0.734375 	 0.936611 
0.023438 	 0.742188 	 0.935169 
0.023438 	 0.750000 	 0.933620 
0.023438 	 0.757812 	 0.931953 
0.023438 	 0.765625 	 0.930156 
0.023438 	 0.773438 	 0.928218 
0.023438 	 0.781250 	 0.926123 
0.023438 	 0.789062 	 0.923855 
0.023438 	 0.796875 	 0.921394 
0.023438 	 0.804688 	 0.918719 
0.023438 	 0.812500 	 0.915802 
0.023438 	 0.820312 	 0.912615 
0.023438 	 0.828125 	 0.909120 
0.023438 	 0.835938 	 0.905276 
0.023438 	 0.843750 	 0.901032 
0.023438 	 0.851562 	 0.896326 
0.023438 	 0.859375 	 0.891085 
0.023438 	 0.867188 	 0.885218 
0.023438 	 0.875000 	 0.878612 
0.023438 	 0.882812 	 0.871126 
0.023438 	 0.890625 	 0.862581 
0.023438 	 0.898438 	 0.852749 
0.023438 	 0.906250 	 0.841329 
0.023438 	 0.914062 	 0.827922 
0.023438 	 0.921875 	 0.811992 
0.023438 	 0.929688 	 0.792794 
0.023438 	 0.937500 	 0.769282 
0.023438 	 0.945312 	 0.739942 
0.023438 	 0.953125 	 0.702548 
0.023438 	 0.960938 	 0.653755 
0.023438 	 0.968750 	 0.588521 
0.023438 	 0.976562 	 0.499399 
0.023438 	 0.984375 	 0.376313 
0.023438 	 0.992188 	 0.209189 
0.023438 	 1.000000 	 0.000000 
0.031250 	 0.000000 	 0.000000 
0.031250 	 0.007812 	 0.158228 
0.031250 	 0.015625 	 0.296932 
0.031250 	 0.023438 	 0.409876 
0.031250 	 0.031250 	 0.498931 
0.031250 	 0.039062 	 0.568598 
0.031250 	 0.046875 	 0.623376 
0.031250 	 0.054688 	 0.666940 
0.031250 	 0.062500 	 0.702069 
0.031250 	 0.070312 	 0.730801 
0.031250 	 0.078125 	 0.754624 
0.031250 	 0.085938 	 0.774628 
0.031250 	 0.093750 	 0.791618 
0.031250 	 0.101562 	 0.806197 
0.031250 	 0.109375 	 0.818822 
0.031250 	 0.117188 	 0.829844 
0.031250 	 0.125000 	 0.839539 
0.031250 	 0.132812 	 0.848123 
0.031250 	 0.140625 	 0.855767 
0.031250 	 0.148438 	 0.862611 
0.031250 	 0.156250 	 0.868768 
0.031250 	 0.164062 	 0.874330 
0.031250 	 0.171875 	 0.879375 
0.031250 	 0.179688 	 0.883968 
0.031250 	 0.187500 	 0.888161 
0.031250 	 0.195312 	 0.892002 
0.031250 	 0.203125 	 0.895528 
0.031250 	 0.210938 	 0.898774 
0.031250 	 0.218750 	 0.901768 
0.031250 	 0.226562 	 0.904535 
0.031250 	 0.234375 	 0.907096 
0.031250 	 0.242188 	 0.909472 
0.031250 	 0.250000 	 0.911677 
0.031250 	 0.257812 	 0.913728 
0.031250 	 0.265625 	 0.915636 
0.031250 	 0.273438 	 0.917413 
0.031250 	 0.281250 	 0.919070 
0.031250 	 0.289062 	 0.920614 
0.031250 	 0.296875 	 0.922056 
0.031250 	 0.304688 	 0.923401 
0.031250 	 0.312500 	 0.924656 
0.031250 	 0.320312 	 0.925827 
0.031250 	 0.328125 	 0.926919 
0.031250 	 0.335938 	 0.927937 
0.031250 	 0.343750 	 0.928886 
0.031250 	 0.351562 	 0.929769 
0.031250 	 0.359375 	 0.930589 
0.031250 	 0.367188 	 0.931350 
0.031250 	 0.375000 	 0.932054 
0.031250 	 0.382812 	 0.932705 
0.031250 	 0.390625 	 0.933304 
0.031250 	 0.398438 	 0.933853 
0.031250 	 0.406250 	 0.934356 
0.031250 	 0.414062 	 0.934812 
0.031250 	 0.421875 	 0.935224 
0.031250 	 0.429688 	 0.935592 
0.031250 	 0.437500 	 0.935919 
0.031250 	 0.445312 	 0.936206 
0.031250 	 0.453125 	 0.936452 
0.031250 	 0.460938 	 0.936659 
0.031250 	 0.468750 	 0.936828 
0.031250 	 0.476562 	 0.936958 
0.031250 	 0.484375 	 0.937051 
0.031250 	 0.492188 	 0.937107 
0.031250 	 0.500000 	 0.937126 
0.031250 	 0.507812 	 0.937107 
0.031250 	 0.515625 	 0.937051 
0.031250 	 0.523438 	 0.936958 
0.031250 	 0.531250 	 0.936828 
0.031250 	 0.539062 	 0.936659 
0.031250 	 0.546875 	 0.936452 
0.031250 	 0.554688 	 0.936206 
0.031250 	 0.562500 	 0.935919 
0.031250 	 0.570312 	 0.935592 
0.031250 	 0.578125 	 0.935224 
0.031250 	 0.585938 	 0.934812 
0.031250 	 0.593750 	 0.934356 
0.031250 	 0.601562 	 0.933853 
0.031250 	 0.609375 	 0.933304 
0.031250 	 0.617188 	 0.932705 
0.031250 	 0.625000 	 0.932054 
0.031250 	 0.632812 	 0.931350 
0.031250 	 0.640625 	 0.930589 
0.031250 	 0.648438 	 0.929769 
0.031250 	 0.656250 	 0.928886 
0.031250 	 0.664062 	 0.927937 
0.031250 	 0.671875 	 0.926919 
0.031250 	 0.679688 	 0.925827 
0.031250 	 0.687500 	 0.924656 
0.031250 	 0.695312 	 0.923401 
0.031250 	 0.703125 	 0.922056 
0.031250 	 0.710938 	 0.920614 
0.031250 	 0.718750 	 0.919070 
0.031250 	 0.726562 	 0.917413 
0.031250 	 0.734375 	 0.915636 
0.031250 	 0.742188 	 0.913728 
0.031250 	 0.750000 	 0.911677 
0.031250 	 0.757812 	 0.909472 
0.031250 	 0.765625 	 0.907096 
0.031250 	 0.773438 	 0.904535 
0.031250 	 0.781250 	 0.901768 
0.031250 	 0.789062 	 0.898774 
0.031250 	 0.796875 	 0.895528 
0.031250 	 0.804688 	 0.892002 
0.031250 	 0.812500 	 0.888161 
0.031250 	 0.820312 	 0.883968 
0.031250 	 0.828125 	 0.879375 
0.031250 	 0.835938 	 0.874330 
0.031250 	 0.843750 	 0.868768 
0.031250 	 0.851562 	 0.862611 
0.031250 	 0.859375 	 0.855767 
0.031250 	 0.867188 	 0.848123 
0.031250 	 0.875000 	 0.839539 
0.031250 	 0.882812 	 0.829844 
0.031250 	 0.890625 	 0.818822 
0.031250 	 0.898438 	 0.806197 
0.031250 	 0.906250 	 0.791618 
0.031250 	 0.914062 	 0.774628 
0.031250 	 0.921875 	 0.754624 
0.031250 	 0.929688 	 0.730801 
0.031250 	 0.937500 	 0.702069 
0.031250 	 0.945312 	 0.666940 
0.031250 	 0.953125 	 0.623376 
0.031250 	 0.960938 	 0.568598 
0.031250 	 0.968750 	 0.498931 
0.031250 	 0.976562 	 0.409876 
0.031250 	 0.984375 	 0.296932 
0.031250 	 0.992188 	 0.158228 
0.031250 	 1.000000 	 0.000000 
0.039062 	 0.000000 	 0.000000 
0.039062 	 0.007812 	 0.126792 
0.039062 	 0.015625 	 0.243311 
0.039062 	 0.023438 	 0.344241 
0.039062 	 0.031250 	 0.428730 
0.039062 	 0.039062 	 0.498330 
0.039062 	 0.046875 	 0.555419 
0.039062 	 0.054688 	 0.602374 
0.039062 	 0.062500 	 0.641251 
0.039062 	 0.070312 	 0.673716 
0.039062 	 0.078125 	 0.701077 
0.039062 	 0.085938 	 0.724349 
0.039062 	 0.093750 	 0.744319 
0.039062 	 0.101562 	 0.761598 
0.039062 	 0.109375 	 0.776664 
0.039062 	 0.117188 	 0.789891 
0.039062 	 0.125000 	 0.801579 
0.039062 	 0.132812 	 0.811967 
0.039062 	 0.140625 	 0.821249 
0.039062 	 0.148438 	 0.829583 
0.039062 	 0.156250 	 0.837097 
0.039062 	 0.164062 	 0.843901 
0.039062 	 0.171875 	 0.850083 
0.039062 	 0.179688 	 0.855719 
0.039062 	 0.187500 	 0.860873 
0.039062 	 0.195312 	 0.865599 
0.039062 	 0.203125 	 0.869943 
0.039062 	 0.210938 	 0.873945 
0.039062 	 0.218750 	 0.877640 
0.039062 	 0.226562 	 0.881057 
0.039062 	 0.234375 	 0.884223 
0.039062 	 0.242188 	 0.887161 
0.039062 	 0.250000 	 0.889890 
0.039062 	 0.257812 	 0.892428 
0.039062 	 0.265625 	 0.894792 
0.039062 	 0.273438 	 0.896994 
0.039062 	 0.281250 	 0.899048 
0.039062 	 0.289062 	 0.900963 
0.039062 	 0.296875 	 0.902751 
0.039062 	 0.304688 	 0.904420 
0.039062 	 0.312500 	 0.905978 
0.039062 	 0.320312 	 0.907432 
0.039062 	 0.328125 	 0.908788 
0.039062 	 0.335938 	 0.910053 
0.039062 	 0.343750 	 0.911232 
0.039062 	 0.351562 	 0.912328 
0.039062 	 0.359375 	 0.913348 
0.039062 	 0.367188 	 0.914293 
0.039062 	 0.375000 	 0.915169 
0.039062 	 0.382812 	 0.915978 
0.039062 	 0.390625 	 0.916723 
0.039062 	 0.398438 	 0.917406 
0.039062 	 0.406250 	 0.918031 
0.039062 	 0.414062 	 0.918598 
0.039062 	 0.421875 	 0.919110 
0.039062 	 0.429688 	 0.919569 
0.039062 	 0.437500 	 0.919976 
0.039062 	 0.445312 	 0.920332 
0.039062 	 0.453125 	 0.920638 
0.039062 	 0.460938 	 0.920896 
0.039062 	 0.468750 	 0.921106 
0.039062 	 0.476562 	 0.921268 
0.039062 	 0.484375 	 0.921384 
0.039062 	 0.492188 	 0.921454 
0.039062 	 0.500000 	 0.921477 
0.039062 	 0.507812 	 0.921454 
0.039062 	 0.515625 	 0.921384 
0.039062 	 0.523438 	 0.921268 
0.039062 	 0.531250 	 0.921106 
0.039062 	 0.539062 	 0.920896 
0.039062 	 0.546875 	 0.920638 
0.039062 	 0.554688 	 0.920332 
0.039062 	 0.562500 	 0.919976 
0.039062 	 0.570312 	 0.919569 
0.039062 	 0.578125 	 0.919110 
0.039062 	 0.585938 	 0.918598 
0.039062 	 0.593750 	 0.918031 
0.039062 	 0.601562 	 0.917406 
0.039062 	 0.609375 	 0.916723 
0.039062 	 0.617188 	 0.915978 
0.039062 	 0.625000 	 0.915169 
0.039062 	 0.632812 	 0.914293 
0.039062 	 0.640625 	 0.913348 
0.039062 	 0.648438 	 0.912328 
0.039062 	 0.656250 	 0.911232 
0.039062 	 0.664062 	 0.910053 
0.039062 	 0.671875 	 0.908788 
0.039062 	 0.679688 	 0.907432 
0.039062 	 0.687500 	 0.905978 
0.039062 	 0.695312 	 0.904420 
0.039062 	 0.703125 	 0.902751 
0.039062 	 0.710938 	 0.900963 
0.039062 	 0.718750 	 0.899048 
0.039062 	 0.726562 	 0.896994 
0.039062 	 0.734375 	 0.894792 
0.039062 	 0.742188 	 0.892428 
0.039062 	 0.750000 	 0.889890 
0.039062 	 0.757812 	 0.887161 
0.039062 	 0.765625 	 0.884223 
0.039062 	 0.773438 	 0.881057 
0.039062 	 0.781250 	 0.877640 
0.039062 	 0.789062 	 0.873945 
0.039062 	 0.796875 	 0.869943 
0.039062 	 0.804688 	 0.865599 
0.039062 	 0.812500 	 0.860873 
0.039062 	 0.820312 	 0.855719 
0.039062 	 0.828125 	 0.850083 
0.039062 	 0.835938 	 0.843901 
0.039062 	 0.843750 	 0.837097 
0.039062 	 0.851562 	 0.829583 
0.039062 	 0.859375 	 0.821249 
0.039062 	 0.867188 	 0.811967 
0.039062 	 0.875000 	 0.801579 
0.039062 	 0.882812 	 0.789891 
0.039062 	 0.890625 	 0.776664 
0.039062 	 0.898438 	 0.761598 
0.039062 	 0.906250 	 0.744319 
0.039062 	 0.914062 	 0.724349 
0.039062 	 0.921875 	 0.701077 
0.039062 	 0.929688 	 0.673716 
0.039062 	 0.937500 	 0.641251 
0.039062 	 0.945312 	 0.602374 
0.039062 	 0.953125 	 0.555419 
0.039062 	 0.960938 	 0.498330 
0.039062 	 0.968750 	 0.428730 
0.039062 	 0.976562 	 0.344241 
0.039062 	 0.984375 	 0.243311 
0.039062 	 0.992188 	 0.126792 
0.039062 	 1.000000 	 0.000000 
0.046875 	 0.000000 	 0.000000 
0.046875 	 0.007812 	 0.105630 
0.046875 	 0.015625 	 0.205280 
0.046875 	 0.023438 	 0.295048 
0.046875 	 0.031250 	 0.373418 
0.046875 	 0.039062 	 0.440573 
0.046875 	 0.046875 	 0.497595 
0.046875 	 0.054688 	 0.545886 
0.046875 	 0.062500 	 0.586847 
0.046875 	 0.070312 	 0.621735 
0.046875 	 0.078125 	 0.651617 
0.046875 	 0.085938 	 0.677371 
0.046875 	 0.093750 	 0.699711 
0.046875 	 0.101562 	 0.719214 
0.046875 	 0.109375 	 0.736343 
0.046875 	 0.117188 	 0.751477 
0.046875 	 0.125000 	 0.764918 
0.046875 	 0.132812 	 0.776918 
0.046875 	 0.140625 	 0.787680 
0.046875 	 0.148438 	 0.797373 
0.046875 	 0.156250 	 0.806138 
0.046875 	 0.164062 	 0.814093 
0.046875 	 0.171875 	 0.821337 
0.046875 	 0.179688 	 0.827953 
0.046875 	 0.187500 	 0.834013 
0.046875 	 0.195312 	 0.839578 
0.046875 	 0.203125 	 0.844700 
0.046875 	 0.210938 	 0.849424 
0.046875 	 0.218750 	 0.853789 
0.046875 	 0.226562 	 0.857831 
0.046875 	 0.234375 	 0.861578 
0.046875 	 0.242188 	 0.865058 
0.046875 	 0.250000 	 0.868293 
0.046875 	 0.257812 	 0.871304 
0.046875 	 0.265625 	 0.874109 
0.046875 	 0.273438 	 0.876724 
0.046875 	 0.281250 	 0.879163 
0.046875 	 0.289062 	 0.881440 
0.046875 	 0.296875 	 0.883566 
0.046875 	 0.304688 	 0.885551 
0.046875 	 0.312500 	 0.887404 
0.046875 	 0.320312 	 0.889135 
0.046875 	 0.328125 	 0.890749 
0.046875 	 0.335938 	 0.892255 
0.046875 	 0.343750 	 0.893659 
0.046875 	 0.351562 	 0.894965 
0.046875 	 0.359375 	 0.896180 
0.046875 	 0.367188 	 0.897307 
0.046875 	 0.375000 	 0.898351 
0.046875 	 0.382812 	 0.899315 
0.046875 	 0.390625 	 0.900203 
0.046875 	 0.398438 	 0.901018 
0.046875 	 0.406250 	 0.901763 
0.046875 	 0.414062 	 0.902440 
0.046875 	 0.421875 	 0.903051 
0.046875 	 0.429688 	 0.903598 
0.046875 	 0.437500 	 0.904083 
0.046875 	 0.445312 	 0.904508 
0.046875 	 0.453125 	 0.904874 
0.046875 	 0.460938 	 0.905181 
0.046875 	 0.468750 	 0.905432 
0.046875 	 0.476562 	 0.905625 
0.046875 	 0.484375 	 0.905764 
0.046875 	 0.492188 	 0.905846 
0.046875 	 0.500000 	 0.905874 
0.046875 	 0.507812 	 0.905846 
0.046875 	 0.515625 	 0.905764 
0.046875 	 0.523438 	 0.905625 
0.046875 	 0.531250 	 0.905432 
0.046875 	 0.539062 	 0.905181 
0.046875 	 0.546875 	 0.904874 
0.046875 	 0.554688 	 0.904508 
0.046875 	 0.562500 	 0.904083 
0.046875 	 0.570312 	 0.903598 
0.046875 	 0.578125 	 0.903051 
0.046875 	 0.585938 	 0.902440 
0.046875 	 0.593750 	 0.901763 
0.046875 	 0.601562 	 0.901018 
0.046875 	 0.609375 	 0.900203 
0.046875 	 0.617188 	 0.899315 
0.046875 	 0.625000 	 0.898351 
0.046875 	 0.632812 	 0.897307 
0.046875 	 0.640625 	 0.896180 
0.046875 	 0.648438 	 0.894965 
0.046875 	 0.656250 	 0.893659 
0.046875 	 0.664062 	 0.892255 
0.046875 	 0.671875 	 0.890749 
0.046875 	 0.679688 	 0.889135 
0.046875 	 0.687500 	 0.887404 
0.046875 	 0.695312 	 0.885551 
0.046875 	 0.703125 	 0.883566 
0.046875 	 0.710938 	 0.881440 
0.046875 	 0.718750 	 0.879163 
0.046875 	 0.726562 	 0.876724 
0.046875 	 0.734375 	 0.874109 
0.046875 	 0.742188 	 0.871304 
0.046875 	 0.750000 	 0.868293 
0.046875 	 0.757812 	 0.865058 
0.046875 	 0.765625 	 0.861578 
0.046875 	 0.773438 	 0.857831 
0.046875 	 0.781250 	 0.853789 
0.046875 	 0.789062 	 0.849424 
0.046875 	 0.796875 	 0.844700 
0.046875 	 0.804688 	 0.839578 
0.046875 	 0.812500 	 0.834013 
0.046875 	 0.820312 	 0.827953 
0.046875 	 0.828125 	 0.821337 
0.046875 	 0.835938 	 0.814093 
0.046875 	 0.843750 	 0.806138 
0.046875 	 0.851562 	 0.797373 
0.046875 	 0.859375 	 0.787680 
0.046875 	 0.867188 	 0.776918 
0.046875 	 0.875000 	 0.764918 
0.046875 	 0.882812 	 0.751477 
0.046875 	 0.890625 	 0.736343 
0.046875 	 0.898438 	 0.719214 
0.046875 	 0.906250 	 0.699711 
0.046875 	 0.914062 	 0.677371 
0.046875 	 0.921875 	 0.651617 
0.046875 	 0.929688 	 0.621735 
0.046875 	 0.937500 	 0.586847 
0.046875 	 0.945312 	 0.545886 
0.046875 	 0.953125 	 0.497595 
0.046875 	 0.960938 	 0.440573 
0.046875 	 0.968750 	 0.373418 
0.046875 	 0.976562 	 0.295048 
0.046875 	 0.984375 	 0.205280 
0.046875 	 0.992188 	 0.105630 
0.046875 	 1.000000 	 0.000000 
0.054688 	 0.000000 	 0.000000 
0.054688 	 0.007812 	 0.090447 
0.054688 	 0.015625 	 0.177130 
0.054688 	 0.023438 	 0.257252 
0.054688 	 0.031250 	 0.329319 
0.054688 	 0.039062 	 0.392950 
0.054688 	 0.046875 	 0.448504 
0.054688 	 0.054688 	 0.496727 
0.054688 	 0.062500 	 0.538515 
0.054688 	 0.070312 	 0.574761 
0.054688 	 0.078125 	 0.606285 
0.054688 	 0.085938 	 0.633807 
0.054688 	 0.093750 	 0.657941 
0.054688 	 0.101562 	 0.679202 
0.054688 	 0.109375 	 0.698020 
0.054688 	 0.117188 	 0.714754 
0.054688 	 0.125000 	 0.729700 
0.054688 	 0.132812 	 0.743106 
0.054688 	 0.140625 	 0.755178 
0.054688 	 0.148438 	 0.766091 
0.054688 	 0.156250 	 0.775990 
0.054688 	 0.164062 	 0.784997 
0.054688 	 0.171875 	 0.793219 
0.054688 	 0.179688 	 0.800744 
0.054688 	 0.187500 	 0.807649 
0.054688 	 0.195312 	 0.814000 
0.054688 	 0.203125 	 0.819854 
0.054688 	 0.210938 	 0.825260 
0.054688 	 0.218750 	 0.830263 
0.054688 	 0.226562 	 0.834899 
0.054688 	 0.234375 	 0.839202 
0.054688 	 0.242188 	 0.843200 