VARIABLES = "X", "Y", "PHI"
ZONE T = "BLOCK1", I = 101, J = 101, F = POINT

0.010000 	 0.010000 	 0.000000 
0.010000 	 0.020000 	 0.000000 
0.010000 	 0.030000 	 0.000000 
0.010000 	 0.040000 	 0.000000 
0.010000 	 0.050000 	 0.000000 
0.010000 	 0.060000 	 0.000000 
0.010000 	 0.070000 	 0.000000 
0.010000 	 0.080000 	 0.000000 
0.010000 	 0.090000 	 0.000000 
0.010000 	 0.100000 	 0.000000 
0.010000 	 0.110000 	 0.000000 
0.010000 	 0.120000 	 0.000000 
0.010000 	 0.130000 	 0.000000 
0.010000 	 0.140000 	 0.000000 
0.010000 	 0.150000 	 0.000000 
0.010000 	 0.160000 	 0.000000 
0.010000 	 0.170000 	 0.000000 
0.010000 	 0.180000 	 0.000000 
0.010000 	 0.190000 	 0.000000 
0.010000 	 0.200000 	 0.000000 
0.010000 	 0.210000 	 0.000000 
0.010000 	 0.220000 	 0.000000 
0.010000 	 0.230000 	 0.000000 
0.010000 	 0.240000 	 0.000000 
0.010000 	 0.250000 	 0.000000 
0.010000 	 0.260000 	 0.000000 
0.010000 	 0.270000 	 0.000000 
0.010000 	 0.280000 	 0.000000 
0.010000 	 0.290000 	 0.000000 
0.010000 	 0.300000 	 0.000000 
0.010000 	 0.310000 	 0.000000 
0.010000 	 0.320000 	 0.000000 
0.010000 	 0.330000 	 0.000000 
0.010000 	 0.340000 	 0.000000 
0.010000 	 0.350000 	 0.000000 
0.010000 	 0.360000 	 0.000000 
0.010000 	 0.370000 	 0.000000 
0.010000 	 0.380000 	 0.000000 
0.010000 	 0.390000 	 0.000000 
0.010000 	 0.400000 	 0.000000 
0.010000 	 0.410000 	 0.000000 
0.010000 	 0.420000 	 0.000000 
0.010000 	 0.430000 	 0.000000 
0.010000 	 0.440000 	 0.000000 
0.010000 	 0.450000 	 0.000000 
0.010000 	 0.460000 	 0.000000 
0.010000 	 0.470000 	 0.000000 
0.010000 	 0.480000 	 0.000000 
0.010000 	 0.490000 	 0.000000 
0.010000 	 0.500000 	 0.000000 
0.010000 	 0.510000 	 0.000000 
0.010000 	 0.520000 	 0.000000 
0.010000 	 0.530000 	 0.000000 
0.010000 	 0.540000 	 0.000000 
0.010000 	 0.550000 	 0.000000 
0.010000 	 0.560000 	 0.000000 
0.010000 	 0.570000 	 0.000000 
0.010000 	 0.580000 	 0.000000 
0.010000 	 0.590000 	 0.000000 
0.010000 	 0.600000 	 0.000000 
0.010000 	 0.610000 	 0.000000 
0.010000 	 0.620000 	 0.000000 
0.010000 	 0.630000 	 0.000000 
0.010000 	 0.640000 	 0.000000 
0.010000 	 0.650000 	 0.000000 
0.010000 	 0.660000 	 0.000000 
0.010000 	 0.670000 	 0.000000 
0.010000 	 0.680000 	 0.000000 
0.010000 	 0.690000 	 0.000000 
0.010000 	 0.700000 	 0.000000 
0.010000 	 0.710000 	 0.000000 
0.010000 	 0.720000 	 0.000000 
0.010000 	 0.730000 	 0.000000 
0.010000 	 0.740000 	 0.000000 
0.010000 	 0.750000 	 0.000000 
0.010000 	 0.760000 	 0.000000 
0.010000 	 0.770000 	 0.000000 
0.010000 	 0.780000 	 0.000000 
0.010000 	 0.790000 	 0.000000 
0.010000 	 0.800000 	 0.000000 
0.010000 	 0.810000 	 0.000000 
0.010000 	 0.820000 	 0.000000 
0.010000 	 0.830000 	 0.000000 
0.010000 	 0.840000 	 0.000000 
0.010000 	 0.850000 	 0.000000 
0.010000 	 0.860000 	 0.000000 
0.010000 	 0.870000 	 0.000000 
0.010000 	 0.880000 	 0.000000 
0.010000 	 0.890000 	 0.000000 
0.010000 	 0.900000 	 0.000000 
0.010000 	 0.910000 	 0.000000 
0.010000 	 0.920000 	 0.000000 
0.010000 	 0.930000 	 0.000000 
0.010000 	 0.940000 	 0.000000 
0.010000 	 0.950000 	 0.000000 
0.010000 	 0.960000 	 0.000000 
0.010000 	 0.970000 	 0.000000 
0.010000 	 0.980000 	 0.000000 
0.010000 	 0.990000 	 0.000000 
0.010000 	 1.000000 	 0.000000 
0.010000 	 1.010000 	 0.000000 
0.020000 	 0.010000 	 0.000000 
0.020000 	 0.020000 	 0.000000 
0.020000 	 0.030000 	 0.000000 
0.020000 	 0.040000 	 0.000001 
0.020000 	 0.050000 	 0.000001 
0.020000 	 0.060000 	 0.000001 
0.020000 	 0.070000 	 0.000001 
0.020000 	 0.080000 	 0.000000 
0.020000 	 0.090000 	 -0.000000 
0.020000 	 0.100000 	 -0.000001 
0.020000 	 0.110000 	 -0.000001 
0.020000 	 0.120000 	 -0.000002 
0.020000 	 0.130000 	 -0.000003 
0.020000 	 0.140000 	 -0.000004 
0.020000 	 0.150000 	 -0.000006 
0.020000 	 0.160000 	 -0.000007 
0.020000 	 0.170000 	 -0.000009 
0.020000 	 0.180000 	 -0.000011 
0.020000 	 0.190000 	 -0.000012 
0.020000 	 0.200000 	 -0.000014 
0.020000 	 0.210000 	 -0.000016 
0.020000 	 0.220000 	 -0.000019 
0.020000 	 0.230000 	 -0.000021 
0.020000 	 0.240000 	 -0.000023 
0.020000 	 0.250000 	 -0.000026 
0.020000 	 0.260000 	 -0.000028 
0.020000 	 0.270000 	 -0.000031 
0.020000 	 0.280000 	 -0.000034 
0.020000 	 0.290000 	 -0.000037 
0.020000 	 0.300000 	 -0.000040 
0.020000 	 0.310000 	 -0.000043 
0.020000 	 0.320000 	 -0.000046 
0.020000 	 0.330000 	 -0.000049 
0.020000 	 0.340000 	 -0.000052 
0.020000 	 0.350000 	 -0.000055 
0.020000 	 0.360000 	 -0.000058 
0.020000 	 0.370000 	 -0.000062 
0.020000 	 0.380000 	 -0.000065 
0.020000 	 0.390000 	 -0.000068 
0.020000 	 0.400000 	 -0.000071 
0.020000 	 0.410000 	 -0.000075 
0.020000 	 0.420000 	 -0.000078 
0.020000 	 0.430000 	 -0.000081 
0.020000 	 0.440000 	 -0.000085 
0.020000 	 0.450000 	 -0.000088 
0.020000 	 0.460000 	 -0.000091 
0.020000 	 0.470000 	 -0.000094 
0.020000 	 0.480000 	 -0.000097 
0.020000 	 0.490000 	 -0.000100 
0.020000 	 0.500000 	 -0.000103 
0.020000 	 0.510000 	 -0.000106 
0.020000 	 0.520000 	 -0.000109 
0.020000 	 0.530000 	 -0.000112 
0.020000 	 0.540000 	 -0.000114 
0.020000 	 0.550000 	 -0.000117 
0.020000 	 0.560000 	 -0.000120 
0.020000 	 0.570000 	 -0.000122 
0.020000 	 0.580000 	 -0.000124 
0.020000 	 0.590000 	 -0.000127 
0.020000 	 0.600000 	 -0.000129 
0.020000 	 0.610000 	 -0.000131 
0.020000 	 0.620000 	 -0.000133 
0.020000 	 0.630000 	 -0.000135 
0.020000 	 0.640000 	 -0.000137 
0.020000 	 0.650000 	 -0.000139 
0.020000 	 0.660000 	 -0.000141 
0.020000 	 0.670000 	 -0.000143 
0.020000 	 0.680000 	 -0.000146 
0.020000 	 0.690000 	 -0.000148 
0.020000 	 0.700000 	 -0.000150 
0.020000 	 0.710000 	 -0.000152 
0.020000 	 0.720000 	 -0.000155 
0.020000 	 0.730000 	 -0.000158 
0.020000 	 0.740000 	 -0.000161 
0.020000 	 0.750000 	 -0.000164 
0.020000 	 0.760000 	 -0.000168 
0.020000 	 0.770000 	 -0.000173 
0.020000 	 0.780000 	 -0.000178 
0.020000 	 0.790000 	 -0.000184 
0.020000 	 0.800000 	 -0.000191 
0.020000 	 0.810000 	 -0.000199 
0.020000 	 0.820000 	 -0.000209 
0.020000 	 0.830000 	 -0.000221 
0.020000 	 0.840000 	 -0.000234 
0.020000 	 0.850000 	 -0.000251 
0.020000 	 0.860000 	 -0.000270 
0.020000 	 0.870000 	 -0.000294 
0.020000 	 0.880000 	 -0.000322 
0.020000 	 0.890000 	 -0.000356 
0.020000 	 0.900000 	 -0.000398 
0.020000 	 0.910000 	 -0.000450 
0.020000 	 0.920000 	 -0.000515 
0.020000 	 0.930000 	 -0.000598 
0.020000 	 0.940000 	 -0.000707 
0.020000 	 0.950000 	 -0.000852 
0.020000 	 0.960000 	 -0.001054 
0.020000 	 0.970000 	 -0.001340 
0.020000 	 0.980000 	 -0.001747 
0.020000 	 0.990000 	 -0.002257 
0.020000 	 1.000000 	 -0.002477 
0.020000 	 1.010000 	 0.000000 
0.030000 	 0.010000 	 0.000000 
0.030000 	 0.020000 	 0.000000 
0.030000 	 0.030000 	 0.000001 
0.030000 	 0.040000 	 0.000001 
0.030000 	 0.050000 	 0.000002 
0.030000 	 0.060000 	 0.000002 
0.030000 	 0.070000 	 0.000001 
0.030000 	 0.080000 	 -0.000000 
0.030000 	 0.090000 	 -0.000002 
0.030000 	 0.100000 	 -0.000004 
0.030000 	 0.110000 	 -0.000007 
0.030000 	 0.120000 	 -0.000011 
0.030000 	 0.130000 	 -0.000015 
0.030000 	 0.140000 	 -0.000020 
0.030000 	 0.150000 	 -0.000025 
0.030000 	 0.160000 	 -0.000030 
0.030000 	 0.170000 	 -0.000037 
0.030000 	 0.180000 	 -0.000043 
0.030000 	 0.190000 	 -0.000050 
0.030000 	 0.200000 	 -0.000058 
0.030000 	 0.210000 	 -0.000066 
0.030000 	 0.220000 	 -0.000075 
0.030000 	 0.230000 	 -0.000083 
0.030000 	 0.240000 	 -0.000093 
0.030000 	 0.250000 	 -0.000102 
0.030000 	 0.260000 	 -0.000112 
0.030000 	 0.270000 	 -0.000123 
0.030000 	 0.280000 	 -0.000133 
0.030000 	 0.290000 	 -0.000144 
0.030000 	 0.300000 	 -0.000155 
0.030000 	 0.310000 	 -0.000167 
0.030000 	 0.320000 	 -0.000178 
0.030000 	 0.330000 	 -0.000190 
0.030000 	 0.340000 	 -0.000202 
0.030000 	 0.350000 	 -0.000215 
0.030000 	 0.360000 	 -0.000227 
0.030000 	 0.370000 	 -0.000239 
0.030000 	 0.380000 	 -0.000252 
0.030000 	 0.390000 	 -0.000264 
0.030000 	 0.400000 	 -0.000277 
0.030000 	 0.410000 	 -0.000290 
0.030000 	 0.420000 	 -0.000302 
0.030000 	 0.430000 	 -0.000315 
0.030000 	 0.440000 	 -0.000327 
0.030000 	 0.450000 	 -0.000339 
0.030000 	 0.460000 	 -0.000352 
0.030000 	 0.470000 	 -0.000364 
0.030000 	 0.480000 	 -0.000376 
0.030000 	 0.490000 	 -0.000387 
0.030000 	 0.500000 	 -0.000399 
0.030000 	 0.510000 	 -0.000410 
0.030000 	 0.520000 	 -0.000421 
0.030000 	 0.530000 	 -0.000432 
0.030000 	 0.540000 	 -0.000442 
0.030000 	 0.550000 	 -0.000452 
0.030000 	 0.560000 	 -0.000462 
0.030000 	 0.570000 	 -0.000472 
0.030000 	 0.580000 	 -0.000481 
0.030000 	 0.590000 	 -0.000490 
0.030000 	 0.600000 	 -0.000499 
0.030000 	 0.610000 	 -0.000507 
0.030000 	 0.620000 	 -0.000516 
0.030000 	 0.630000 	 -0.000524 
0.030000 	 0.640000 	 -0.000532 
0.030000 	 0.650000 	 -0.000540 
0.030000 	 0.660000 	 -0.000548 
0.030000 	 0.670000 	 -0.000556 
0.030000 	 0.680000 	 -0.000564 
0.030000 	 0.690000 	 -0.000572 
0.030000 	 0.700000 	 -0.000581 
0.030000 	 0.710000 	 -0.000590 
0.030000 	 0.720000 	 -0.000600 
0.030000 	 0.730000 	 -0.000611 
0.030000 	 0.740000 	 -0.000623 
0.030000 	 0.750000 	 -0.000637 
0.030000 	 0.760000 	 -0.000652 
0.030000 	 0.770000 	 -0.000669 
0.030000 	 0.780000 	 -0.000689 
0.030000 	 0.790000 	 -0.000711 
0.030000 	 0.800000 	 -0.000738 
0.030000 	 0.810000 	 -0.000769 
0.030000 	 0.820000 	 -0.000805 
0.030000 	 0.830000 	 -0.000847 
0.030000 	 0.840000 	 -0.000897 
0.030000 	 0.850000 	 -0.000956 
0.030000 	 0.860000 	 -0.001026 
0.030000 	 0.870000 	 -0.001109 
0.030000 	 0.880000 	 -0.001208 
0.030000 	 0.890000 	 -0.001327 
0.030000 	 0.900000 	 -0.001470 
0.030000 	 0.910000 	 -0.001644 
0.030000 	 0.920000 	 -0.001856 
0.030000 	 0.930000 	 -0.002119 
0.030000 	 0.940000 	 -0.002445 
0.030000 	 0.950000 	 -0.002854 
0.030000 	 0.960000 	 -0.003369 
0.030000 	 0.970000 	 -0.003999 
0.030000 	 0.980000 	 -0.004704 
0.030000 	 0.990000 	 -0.005228 
0.030000 	 1.000000 	 -0.004628 
0.030000 	 1.010000 	 0.000000 
0.040000 	 0.010000 	 0.000000 
0.040000 	 0.020000 	 0.000001 
0.040000 	 0.030000 	 0.000001 
0.040000 	 0.040000 	 0.000002 
0.040000 	 0.050000 	 0.000002 
0.040000 	 0.060000 	 0.000001 
0.040000 	 0.070000 	 -0.000000 
0.040000 	 0.080000 	 -0.000003 
0.040000 	 0.090000 	 -0.000008 
0.040000 	 0.100000 	 -0.000013 
0.040000 	 0.110000 	 -0.000020 
0.040000 	 0.120000 	 -0.000027 
0.040000 	 0.130000 	 -0.000037 
0.040000 	 0.140000 	 -0.000047 
0.040000 	 0.150000 	 -0.000058 
0.040000 	 0.160000 	 -0.000071 
0.040000 	 0.170000 	 -0.000084 
0.040000 	 0.180000 	 -0.000099 
0.040000 	 0.190000 	 -0.000114 
0.040000 	 0.200000 	 -0.000131 
0.040000 	 0.210000 	 -0.000149 
0.040000 	 0.220000 	 -0.000167 
0.040000 	 0.230000 	 -0.000186 
0.040000 	 0.240000 	 -0.000207 
0.040000 	 0.250000 	 -0.000228 
0.040000 	 0.260000 	 -0.000249 
0.040000 	 0.270000 	 -0.000272 
0.040000 	 0.280000 	 -0.000295 
0.040000 	 0.290000 	 -0.000319 
0.040000 	 0.300000 	 -0.000343 
0.040000 	 0.310000 	 -0.000368 
0.040000 	 0.320000 	 -0.000393 
0.040000 	 0.330000 	 -0.000419 
0.040000 	 0.340000 	 -0.000445 
0.040000 	 0.350000 	 -0.000472 
0.040000 	 0.360000 	 -0.000499 
0.040000 	 0.370000 	 -0.000526 
0.040000 	 0.380000 	 -0.000553 
0.040000 	 0.390000 	 -0.000580 
0.040000 	 0.400000 	 -0.000608 
0.040000 	 0.410000 	 -0.000635 
0.040000 	 0.420000 	 -0.000663 
0.040000 	 0.430000 	 -0.000690 
0.040000 	 0.440000 	 -0.000717 
0.040000 	 0.450000 	 -0.000744 
0.040000 	 0.460000 	 -0.000771 
0.040000 	 0.470000 	 -0.000797 
0.040000 	 0.480000 	 -0.000823 
0.040000 	 0.490000 	 -0.000848 
0.040000 	 0.500000 	 -0.000873 
0.040000 	 0.510000 	 -0.000898 
0.040000 	 0.520000 	 -0.000922 
0.040000 	 0.530000 	 -0.000945 
0.040000 	 0.540000 	 -0.000968 
0.040000 	 0.550000 	 -0.000991 
0.040000 	 0.560000 	 -0.001012 
0.040000 	 0.570000 	 -0.001033 
0.040000 	 0.580000 	 -0.001054 
0.040000 	 0.590000 	 -0.001074 
0.040000 	 0.600000 	 -0.001093 
0.040000 	 0.610000 	 -0.001112 
0.040000 	 0.620000 	 -0.001130 
0.040000 	 0.630000 	 -0.001148 
0.040000 	 0.640000 	 -0.001166 
0.040000 	 0.650000 	 -0.001183 
0.040000 	 0.660000 	 -0.001201 
0.040000 	 0.670000 	 -0.001218 
0.040000 	 0.680000 	 -0.001236 
0.040000 	 0.690000 	 -0.001255 
0.040000 	 0.700000 	 -0.001274 
0.040000 	 0.710000 	 -0.001294 
0.040000 	 0.720000 	 -0.001316 
0.040000 	 0.730000 	 -0.001340 
0.040000 	 0.740000 	 -0.001366 
0.040000 	 0.750000 	 -0.001395 
0.040000 	 0.760000 	 -0.001427 
0.040000 	 0.770000 	 -0.001464 
0.040000 	 0.780000 	 -0.001506 
0.040000 	 0.790000 	 -0.001554 
0.040000 	 0.800000 	 -0.001610 
0.040000 	 0.810000 	 -0.001674 
0.040000 	 0.820000 	 -0.001749 
0.040000 	 0.830000 	 -0.001837 
0.040000 	 0.840000 	 -0.001940 
0.040000 	 0.850000 	 -0.002060 
0.040000 	 0.860000 	 -0.002202 
0.040000 	 0.870000 	 -0.002369 
0.040000 	 0.880000 	 -0.002566 
0.040000 	 0.890000 	 -0.002799 
0.040000 	 0.900000 	 -0.003076 
0.040000 	 0.910000 	 -0.003406 
0.040000 	 0.920000 	 -0.003799 
0.040000 	 0.930000 	 -0.004268 
0.040000 	 0.940000 	 -0.004826 
0.040000 	 0.950000 	 -0.005483 
0.040000 	 0.960000 	 -0.006236 
0.040000 	 0.970000 	 -0.007034 
0.040000 	 0.980000 	 -0.007705 
0.040000 	 0.990000 	 -0.007767 
0.040000 	 1.000000 	 -0.006032 
0.040000 	 1.010000 	 0.000000 
0.050000 	 0.010000 	 0.000000 
0.050000 	 0.020000 	 0.000001 
0.050000 	 0.030000 	 0.000002 
0.050000 	 0.040000 	 0.000002 
0.050000 	 0.050000 	 0.000002 
0.050000 	 0.060000 	 -0.000000 
0.050000 	 0.070000 	 -0.000004 
0.050000 	 0.080000 	 -0.000010 
0.050000 	 0.090000 	 -0.000018 
0.050000 	 0.100000 	 -0.000027 
0.050000 	 0.110000 	 -0.000039 
0.050000 	 0.120000 	 -0.000053 
0.050000 	 0.130000 	 -0.000069 
0.050000 	 0.140000 	 -0.000087 
0.050000 	 0.150000 	 -0.000107 
0.050000 	 0.160000 	 -0.000128 
0.050000 	 0.170000 	 -0.000152 
0.050000 	 0.180000 	 -0.000177 
0.050000 	 0.190000 	 -0.000204 
0.050000 	 0.200000 	 -0.000233 
0.050000 	 0.210000 	 -0.000263 
0.050000 	 0.220000 	 -0.000295 
0.050000 	 0.230000 	 -0.000329 
0.050000 	 0.240000 	 -0.000363 
0.050000 	 0.250000 	 -0.000400 
0.050000 	 0.260000 	 -0.000437 
0.050000 	 0.270000 	 -0.000476 
0.050000 	 0.280000 	 -0.000516 
0.050000 	 0.290000 	 -0.000557 
0.050000 	 0.300000 	 -0.000599 
0.050000 	 0.310000 	 -0.000642 
0.050000 	 0.320000 	 -0.000685 
0.050000 	 0.330000 	 -0.000730 
0.050000 	 0.340000 	 -0.000775 
0.050000 	 0.350000 	 -0.000821 
0.050000 	 0.360000 	 -0.000867 
0.050000 	 0.370000 	 -0.000914 
0.050000 	 0.380000 	 -0.000961 
0.050000 	 0.390000 	 -0.001008 
0.050000 	 0.400000 	 -0.001055 
0.050000 	 0.410000 	 -0.001103 
0.050000 	 0.420000 	 -0.001150 
0.050000 	 0.430000 	 -0.001197 
0.050000 	 0.440000 	 -0.001244 
0.050000 	 0.450000 	 -0.001290 
0.050000 	 0.460000 	 -0.001336 
0.050000 	 0.470000 	 -0.001381 
0.050000 	 0.480000 	 -0.001426 
0.050000 	 0.490000 	 -0.001470 
0.050000 	 0.500000 	 -0.001514 
0.050000 	 0.510000 	 -0.001556 
0.050000 	 0.520000 	 -0.001598 
0.050000 	 0.530000 	 -0.001638 
0.050000 	 0.540000 	 -0.001678 
0.050000 	 0.550000 	 -0.001717 
0.050000 	 0.560000 	 -0.001754 
0.050000 	 0.570000 	 -0.001791 
0.050000 	 0.580000 	 -0.001826 
0.050000 	 0.590000 	 -0.001861 
0.050000 	 0.600000 	 -0.001895 
0.050000 	 0.610000 	 -0.001927 
0.050000 	 0.620000 	 -0.001959 
0.050000 	 0.630000 	 -0.001991 
0.050000 	 0.640000 	 -0.002021 
0.050000 	 0.650000 	 -0.002052 
0.050000 	 0.660000 	 -0.002082 
0.050000 	 0.670000 	 -0.002113 
0.050000 	 0.680000 	 -0.002144 
0.050000 	 0.690000 	 -0.002176 
0.050000 	 0.700000 	 -0.002209 
0.050000 	 0.710000 	 -0.002244 
0.050000 	 0.720000 	 -0.002282 
0.050000 	 0.730000 	 -0.002322 
0.050000 	 0.740000 	 -0.002367 
0.050000 	 0.750000 	 -0.002416 
0.050000 	 0.760000 	 -0.002470 
0.050000 	 0.770000 	 -0.002532 
0.050000 	 0.780000 	 -0.002602 
0.050000 	 0.790000 	 -0.002682 
0.050000 	 0.800000 	 -0.002775 
0.050000 	 0.810000 	 -0.002881 
0.050000 	 0.820000 	 -0.003004 
0.050000 	 0.830000 	 -0.003147 
0.050000 	 0.840000 	 -0.003313 
0.050000 	 0.850000 	 -0.003506 
0.050000 	 0.860000 	 -0.003732 
0.050000 	 0.870000 	 -0.003995 
0.050000 	 0.880000 	 -0.004303 
0.050000 	 0.890000 	 -0.004662 
0.050000 	 0.900000 	 -0.005081 
0.050000 	 0.910000 	 -0.005569 
0.050000 	 0.920000 	 -0.006137 
0.050000 	 0.930000 	 -0.006791 
0.050000 	 0.940000 	 -0.007534 
0.050000 	 0.950000 	 -0.008354 
0.050000 	 0.960000 	 -0.009205 
0.050000 	 0.970000 	 -0.009961 
0.050000 	 0.980000 	 -0.010336 
0.050000 	 0.990000 	 -0.009716 
0.050000 	 1.000000 	 -0.006915 
0.050000 	 1.010000 	 0.000000 
0.060000 	 0.010000 	 0.000000 
0.060000 	 0.020000 	 0.000001 
0.060000 	 0.030000 	 0.000002 
0.060000 	 0.040000 	 0.000001 
0.060000 	 0.050000 	 -0.000000 
0.060000 	 0.060000 	 -0.000005 
0.060000 	 0.070000 	 -0.000011 
0.060000 	 0.080000 	 -0.000021 
0.060000 	 0.090000 	 -0.000033 
0.060000 	 0.100000 	 -0.000048 
0.060000 	 0.110000 	 -0.000067 
0.060000 	 0.120000 	 -0.000088 
0.060000 	 0.130000 	 -0.000113 
0.060000 	 0.140000 	 -0.000140 
0.060000 	 0.150000 	 -0.000170 
0.060000 	 0.160000 	 -0.000204 
0.060000 	 0.170000 	 -0.000240 
0.060000 	 0.180000 	 -0.000278 
0.060000 	 0.190000 	 -0.000319 
0.060000 	 0.200000 	 -0.000363 
0.060000 	 0.210000 	 -0.000409 
0.060000 	 0.220000 	 -0.000458 
0.060000 	 0.230000 	 -0.000509 
0.060000 	 0.240000 	 -0.000562 
0.060000 	 0.250000 	 -0.000616 
0.060000 	 0.260000 	 -0.000673 
0.060000 	 0.270000 	 -0.000732 
0.060000 	 0.280000 	 -0.000793 
0.060000 	 0.290000 	 -0.000855 
0.060000 	 0.300000 	 -0.000919 
0.060000 	 0.310000 	 -0.000984 
0.060000 	 0.320000 	 -0.001050 
0.060000 	 0.330000 	 -0.001117 
0.060000 	 0.340000 	 -0.001186 
0.060000 	 0.350000 	 -0.001255 
0.060000 	 0.360000 	 -0.001325 
0.060000 	 0.370000 	 -0.001396 
0.060000 	 0.380000 	 -0.001467 
0.060000 	 0.390000 	 -0.001539 
0.060000 	 0.400000 	 -0.001611 
0.060000 	 0.410000 	 -0.001682 
0.060000 	 0.420000 	 -0.001754 
0.060000 	 0.430000 	 -0.001825 
0.060000 	 0.440000 	 -0.001896 
0.060000 	 0.450000 	 -0.001967 
0.060000 	 0.460000 	 -0.002037 
0.060000 	 0.470000 	 -0.002106 
0.060000 	 0.480000 	 -0.002174 
0.060000 	 0.490000 	 -0.002241 
0.060000 	 0.500000 	 -0.002307 
0.060000 	 0.510000 	 -0.002371 
0.060000 	 0.520000 	 -0.002435 
0.060000 	 0.530000 	 -0.002497 
0.060000 	 0.540000 	 -0.002557 
0.060000 	 0.550000 	 -0.002616 
0.060000 	 0.560000 	 -0.002673 
0.060000 	 0.570000 	 -0.002729 
0.060000 	 0.580000 	 -0.002783 
0.060000 	 0.590000 	 -0.002836 
0.060000 	 0.600000 	 -0.002888 
0.060000 	 0.610000 	 -0.002938 
0.060000 	 0.620000 	 -0.002987 
0.060000 	 0.630000 	 -0.003035 
0.060000 	 0.640000 	 -0.003082 
0.060000 	 0.650000 	 -0.003128 
0.060000 	 0.660000 	 -0.003175 
0.060000 	 0.670000 	 -0.003222 
0.060000 	 0.680000 	 -0.003269 
0.060000 	 0.690000 	 -0.003317 
0.060000 	 0.700000 	 -0.003368 
0.060000 	 0.710000 	 -0.003420 
0.060000 	 0.720000 	 -0.003477 
0.060000 	 0.730000 	 -0.003537 
0.060000 	 0.740000 	 -0.003603 
0.060000 	 0.750000 	 -0.003676 
0.060000 	 0.760000 	 -0.003757 
0.060000 	 0.770000 	 -0.003847 
0.060000 	 0.780000 	 -0.003950 
0.060000 	 0.790000 	 -0.004066 
0.060000 	 0.800000 	 -0.004200 
0.060000 	 0.810000 	 -0.004352 
0.060000 	 0.820000 	 -0.004528 
0.060000 	 0.830000 	 -0.004731 
0.060000 	 0.840000 	 -0.004966 
0.060000 	 0.850000 	 -0.005236 
0.060000 	 0.860000 	 -0.005549 
0.060000 	 0.870000 	 -0.005911 
0.060000 	 0.880000 	 -0.006329 
0.060000 	 0.890000 	 -0.006809 
0.060000 	 0.900000 	 -0.007361 
0.060000 	 0.910000 	 -0.007990 
0.060000 	 0.920000 	 -0.008701 
0.060000 	 0.930000 	 -0.009492 
0.060000 	 0.940000 	 -0.010348 
0.060000 	 0.950000 	 -0.011227 
0.060000 	 0.960000 	 -0.012037 
0.060000 	 0.970000 	 -0.012589 
0.060000 	 0.980000 	 -0.012520 
0.060000 	 0.990000 	 -0.011175 
0.060000 	 1.000000 	 -0.007485 
0.060000 	 1.010000 	 0.000000 
0.070000 	 0.010000 	 0.000000 
0.070000 	 0.020000 	 0.000001 
0.070000 	 0.030000 	 0.000001 
0.070000 	 0.040000 	 -0.000000 
0.070000 	 0.050000 	 -0.000004 
0.070000 	 0.060000 	 -0.000011 
0.070000 	 0.070000 	 -0.000021 
0.070000 	 0.080000 	 -0.000036 
0.070000 	 0.090000 	 -0.000054 
0.070000 	 0.100000 	 -0.000076 
0.070000 	 0.110000 	 -0.000103 
0.070000 	 0.120000 	 -0.000133 
0.070000 	 0.130000 	 -0.000168 
0.070000 	 0.140000 	 -0.000207 
0.070000 	 0.150000 	 -0.000250 
0.070000 	 0.160000 	 -0.000297 
0.070000 	 0.170000 	 -0.000347 
0.070000 	 0.180000 	 -0.000402 
0.070000 	 0.190000 	 -0.000459 
0.070000 	 0.200000 	 -0.000521 
0.070000 	 0.210000 	 -0.000586 
0.070000 	 0.220000 	 -0.000654 
0.070000 	 0.230000 	 -0.000725 
0.070000 	 0.240000 	 -0.000799 
0.070000 	 0.250000 	 -0.000876 
0.070000 	 0.260000 	 -0.000955 
0.070000 	 0.270000 	 -0.001038 
0.070000 	 0.280000 	 -0.001122 
0.070000 	 0.290000 	 -0.001209 
0.070000 	 0.300000 	 -0.001298 
0.070000 	 0.310000 	 -0.001389 
0.070000 	 0.320000 	 -0.001482 
0.070000 	 0.330000 	 -0.001576 
0.070000 	 0.340000 	 -0.001672 
0.070000 	 0.350000 	 -0.001769 
0.070000 	 0.360000 	 -0.001867 
0.070000 	 0.370000 	 -0.001966 
0.070000 	 0.380000 	 -0.002065 
0.070000 	 0.390000 	 -0.002165 
0.070000 	 0.400000 	 -0.002265 
0.070000 	 0.410000 	 -0.002366 
0.070000 	 0.420000 	 -0.002466 
0.070000 	 0.430000 	 -0.002566 
0.070000 	 0.440000 	 -0.002665 
0.070000 	 0.450000 	 -0.002764 
0.070000 	 0.460000 	 -0.002862 
0.070000 	 0.470000 	 -0.002958 
0.070000 	 0.480000 	 -0.003054 
0.070000 	 0.490000 	 -0.003148 
0.070000 	 0.500000 	 -0.003240 
0.070000 	 0.510000 	 -0.003331 
0.070000 	 0.520000 	 -0.003420 
0.070000 	 0.530000 	 -0.003507 
0.070000 	 0.540000 	 -0.003592 
0.070000 	 0.550000 	 -0.003674 
0.070000 	 0.560000 	 -0.003755 
0.070000 	 0.570000 	 -0.003834 
0.070000 	 0.580000 	 -0.003910 
0.070000 	 0.590000 	 -0.003984 
0.070000 	 0.600000 	 -0.004057 
0.070000 	 0.610000 	 -0.004127 
0.070000 	 0.620000 	 -0.004196 
0.070000 	 0.630000 	 -0.004264 
0.070000 	 0.640000 	 -0.004330 
0.070000 	 0.650000 	 -0.004395 
0.070000 	 0.660000 	 -0.004461 
0.070000 	 0.670000 	 -0.004526 
0.070000 	 0.680000 	 -0.004592 
0.070000 	 0.690000 	 -0.004660 
0.070000 	 0.700000 	 -0.004729 
0.070000 	 0.710000 	 -0.004803 
0.070000 	 0.720000 	 -0.004880 
0.070000 	 0.730000 	 -0.004963 
0.070000 	 0.740000 	 -0.005053 
0.070000 	 0.750000 	 -0.005152 
0.070000 	 0.760000 	 -0.005261 
0.070000 	 0.770000 	 -0.005383 
0.070000 	 0.780000 	 -0.005520 
0.070000 	 0.790000 	 -0.005675 
0.070000 	 0.800000 	 -0.005852 
0.070000 	 0.810000 	 -0.006053 
0.070000 	 0.820000 	 -0.006283 
0.070000 	 0.830000 	 -0.006547 
0.070000 	 0.840000 	 -0.006849 
0.070000 	 0.850000 	 -0.007196 
0.070000 	 0.860000 	 -0.007594 
0.070000 	 0.870000 	 -0.008048 
0.070000 	 0.880000 	 -0.008566 
0.070000 	 0.890000 	 -0.009153 
0.070000 	 0.900000 	 -0.009815 
0.070000 	 0.910000 	 -0.010554 
0.070000 	 0.920000 	 -0.011365 
0.070000 	 0.930000 	 -0.012234 
0.070000 	 0.940000 	 -0.013125 
0.070000 	 0.950000 	 -0.013968 
0.070000 	 0.960000 	 -0.014630 
0.070000 	 0.970000 	 -0.014875 
0.070000 	 0.980000 	 -0.014304 
0.070000 	 0.990000 	 -0.012275 
0.070000 	 1.000000 	 -0.007871 
0.070000 	 1.010000 	 0.000000 
0.080000 	 0.010000 	 0.000000 
0.080000 	 0.020000 	 0.000000 
0.080000 	 0.030000 	 -0.000000 
0.080000 	 0.040000 	 -0.000003 
0.080000 	 0.050000 	 -0.000010 
0.080000 	 0.060000 	 -0.000020 
0.080000 	 0.070000 	 -0.000035 
0.080000 	 0.080000 	 -0.000055 
0.080000 	 0.090000 	 -0.000081 
0.080000 	 0.100000 	 -0.000111 
0.080000 	 0.110000 	 -0.000147 
0.080000 	 0.120000 	 -0.000189 
0.080000 	 0.130000 	 -0.000235 
0.080000 	 0.140000 	 -0.000287 
0.080000 	 0.150000 	 -0.000345 
0.080000 	 0.160000 	 -0.000407 
0.080000 	 0.170000 	 -0.000474 
0.080000 	 0.180000 	 -0.000546 
0.080000 	 0.190000 	 -0.000623 
0.080000 	 0.200000 	 -0.000705 
0.080000 	 0.210000 	 -0.000791 
0.080000 	 0.220000 	 -0.000881 
0.080000 	 0.230000 	 -0.000975 
0.080000 	 0.240000 	 -0.001073 
0.080000 	 0.250000 	 -0.001175 
0.080000 	 0.260000 	 -0.001280 
0.080000 	 0.270000 	 -0.001389 
0.080000 	 0.280000 	 -0.001501 
0.080000 	 0.290000 	 -0.001616 
0.080000 	 0.300000 	 -0.001733 
0.080000 	 0.310000 	 -0.001854 
0.080000 	 0.320000 	 -0.001976 
0.080000 	 0.330000 	 -0.002101 
0.080000 	 0.340000 	 -0.002227 
0.080000 	 0.350000 	 -0.002355 
0.080000 	 0.360000 	 -0.002485 
0.080000 	 0.370000 	 -0.002616 
0.080000 	 0.380000 	 -0.002747 
0.080000 	 0.390000 	 -0.002879 
0.080000 	 0.400000 	 -0.003012 
0.080000 	 0.410000 	 -0.003145 
0.080000 	 0.420000 	 -0.003277 
0.080000 	 0.430000 	 -0.003409 
0.080000 	 0.440000 	 -0.003541 
0.080000 	 0.450000 	 -0.003671 
0.080000 	 0.460000 	 -0.003801 
0.080000 	 0.470000 	 -0.003929 
0.080000 	 0.480000 	 -0.004055 
0.080000 	 0.490000 	 -0.004180 
0.080000 	 0.500000 	 -0.004302 
0.080000 	 0.510000 	 -0.004422 
0.080000 	 0.520000 	 -0.004540 
0.080000 	 0.530000 	 -0.004656 
0.080000 	 0.540000 	 -0.004768 
0.080000 	 0.550000 	 -0.004878 
0.080000 	 0.560000 	 -0.004985 
0.080000 	 0.570000 	 -0.005090 
0.080000 	 0.580000 	 -0.005191 
0.080000 	 0.590000 	 -0.005290 
0.080000 	 0.600000 	 -0.005386 
0.080000 	 0.610000 	 -0.005480 
0.080000 	 0.620000 	 -0.005572 
0.080000 	 0.630000 	 -0.005661 
0.080000 	 0.640000 	 -0.005749 
0.080000 	 0.650000 	 -0.005836 
0.080000 	 0.660000 	 -0.005922 
0.080000 	 0.670000 	 -0.006009 
0.080000 	 0.680000 	 -0.006096 
0.080000 	 0.690000 	 -0.006185 
0.080000 	 0.700000 	 -0.006276 
0.080000 	 0.710000 	 -0.006371 
0.080000 	 0.720000 	 -0.006472 
0.080000 	 0.730000 	 -0.006579 
0.080000 	 0.740000 	 -0.006694 
0.080000 	 0.750000 	 -0.006821 
0.080000 	 0.760000 	 -0.006960 
0.080000 	 0.770000 	 -0.007114 
0.080000 	 0.780000 	 -0.007286 
0.080000 	 0.790000 	 -0.007480 
0.080000 	 0.800000 	 -0.007700 
0.080000 	 0.810000 	 -0.007949 
0.080000 	 0.820000 	 -0.008232 
0.080000 	 0.830000 	 -0.008554 
0.080000 	 0.840000 	 -0.008920 
0.080000 	 0.850000 	 -0.009337 
0.080000 	 0.860000 	 -0.009809 
0.080000 	 0.870000 	 -0.010344 
0.080000 	 0.880000 	 -0.010946 
0.080000 	 0.890000 	 -0.011619 
0.080000 	 0.900000 	 -0.012364 
0.080000 	 0.910000 	 -0.013175 
0.080000 	 0.920000 	 -0.014040 
0.080000 	 0.930000 	 -0.014928 
0.080000 	 0.940000 	 -0.015785 
0.080000 	 0.950000 	 -0.016515 
0.080000 	 0.960000 	 -0.016955 
0.080000 	 0.970000 	 -0.016839 
0.080000 	 0.980000 	 -0.015760 
0.080000 	 0.990000 	 -0.013121 
0.080000 	 1.000000 	 -0.008144 
0.080000 	 1.010000 	 0.000000 
0.090000 	 0.010000 	 0.000000 
0.090000 	 0.020000 	 0.000000 
0.090000 	 0.030000 	 -0.000002 
0.090000 	 0.040000 	 -0.000007 
0.090000 	 0.050000 	 -0.000017 
0.090000 	 0.060000 	 -0.000032 
0.090000 	 0.070000 	 -0.000053 
0.090000 	 0.080000 	 -0.000080 
0.090000 	 0.090000 	 -0.000113 
0.090000 	 0.100000 	 -0.000153 
0.090000 	 0.110000 	 -0.000200 
0.090000 	 0.120000 	 -0.000254 
0.090000 	 0.130000 	 -0.000314 
0.090000 	 0.140000 	 -0.000381 
0.090000 	 0.150000 	 -0.000454 
0.090000 	 0.160000 	 -0.000534 
0.090000 	 0.170000 	 -0.000620 
0.090000 	 0.180000 	 -0.000712 
0.090000 	 0.190000 	 -0.000810 
0.090000 	 0.200000 	 -0.000914 
0.090000 	 0.210000 	 -0.001023 
0.090000 	 0.220000 	 -0.001137 
0.090000 	 0.230000 	 -0.001257 
0.090000 	 0.240000 	 -0.001382 
0.090000 	 0.250000 	 -0.001511 
0.090000 	 0.260000 	 -0.001645 
0.090000 	 0.270000 	 -0.001783 
0.090000 	 0.280000 	 -0.001925 
0.090000 	 0.290000 	 -0.002071 
0.090000 	 0.300000 	 -0.002220 
0.090000 	 0.310000 	 -0.002373 
0.090000 	 0.320000 	 -0.002528 
0.090000 	 0.330000 	 -0.002686 
0.090000 	 0.340000 	 -0.002847 
0.090000 	 0.350000 	 -0.003009 
0.090000 	 0.360000 	 -0.003173 
0.090000 	 0.370000 	 -0.003339 
0.090000 	 0.380000 	 -0.003506 
0.090000 	 0.390000 	 -0.003674 
0.090000 	 0.400000 	 -0.003842 
0.090000 	 0.410000 	 -0.004010 
0.090000 	 0.420000 	 -0.004178 
0.090000 	 0.430000 	 -0.004346 
0.090000 	 0.440000 	 -0.004513 
0.090000 	 0.450000 	 -0.004679 
0.090000 	 0.460000 	 -0.004843 
0.090000 	 0.470000 	 -0.005006 
0.090000 	 0.480000 	 -0.005167 
0.090000 	 0.490000 	 -0.005325 
0.090000 	 0.500000 	 -0.005481 
0.090000 	 0.510000 	 -0.005634 
0.090000 	 0.520000 	 -0.005784 
0.090000 	 0.530000 	 -0.005931 
0.090000 	 0.540000 	 -0.006074 
0.090000 	 0.550000 	 -0.006214 
0.090000 	 0.560000 	 -0.006351 
0.090000 	 0.570000 	 -0.006484 
0.090000 	 0.580000 	 -0.006614 
0.090000 	 0.590000 	 -0.006740 
0.090000 	 0.600000 	 -0.006862 
0.090000 	 0.610000 	 -0.006982 
0.090000 	 0.620000 	 -0.007098 
0.090000 	 0.630000 	 -0.007212 
0.090000 	 0.640000 	 -0.007324 
0.090000 	 0.650000 	 -0.007434 
0.090000 	 0.660000 	 -0.007544 
0.090000 	 0.670000 	 -0.007653 
0.090000 	 0.680000 	 -0.007763 
0.090000 	 0.690000 	 -0.007874 
0.090000 	 0.700000 	 -0.007989 
0.090000 	 0.710000 	 -0.008107 
0.090000 	 0.720000 	 -0.008232 
0.090000 	 0.730000 	 -0.008364 
0.090000 	 0.740000 	 -0.008506 
0.090000 	 0.750000 	 -0.008660 
0.090000 	 0.760000 	 -0.008829 
0.090000 	 0.770000 	 -0.009015 
0.090000 	 0.780000 	 -0.009222 
0.090000 	 0.790000 	 -0.009454 
0.090000 	 0.800000 	 -0.009714 
0.090000 	 0.810000 	 -0.010008 
0.090000 	 0.820000 	 -0.010339 
0.090000 	 0.830000 	 -0.010714 
0.090000 	 0.840000 	 -0.011137 
0.090000 	 0.850000 	 -0.011614 
0.090000 	 0.860000 	 -0.012150 
0.090000 	 0.870000 	 -0.012750 
0.090000 	 0.880000 	 -0.013416 
0.090000 	 0.890000 	 -0.014150 
0.090000 	 0.900000 	 -0.014945 
0.090000 	 0.910000 	 -0.015792 
0.090000 	 0.920000 	 -0.016664 
0.090000 	 0.930000 	 -0.017521 
0.090000 	 0.940000 	 -0.018288 
0.090000 	 0.950000 	 -0.018849 
0.090000 	 0.960000 	 -0.019020 
0.090000 	 0.970000 	 -0.018523 
0.090000 	 0.980000 	 -0.016959 
0.090000 	 0.990000 	 -0.013785 
0.090000 	 1.000000 	 -0.008348 
0.090000 	 1.010000 	 0.000000 
0.100000 	 0.010000 	 0.000000 
0.100000 	 0.020000 	 -0.000001 