VARIABLES = "X", "Y", "W"
ZONE T = "BLOCK1", I = 101, J = 101, F = POINT

0.010000 	 0.010000 	 -0.000000 
0.010000 	 0.020000 	 -0.002170 
0.010000 	 0.030000 	 -0.006751 
0.010000 	 0.040000 	 -0.011377 
0.010000 	 0.050000 	 -0.014498 
0.010000 	 0.060000 	 -0.015237 
0.010000 	 0.070000 	 -0.013127 
0.010000 	 0.080000 	 -0.007944 
0.010000 	 0.090000 	 0.000403 
0.010000 	 0.100000 	 0.011927 
0.010000 	 0.110000 	 0.026594 
0.010000 	 0.120000 	 0.044347 
0.010000 	 0.130000 	 0.065113 
0.010000 	 0.140000 	 0.088810 
0.010000 	 0.150000 	 0.115355 
0.010000 	 0.160000 	 0.144659 
0.010000 	 0.170000 	 0.176636 
0.010000 	 0.180000 	 0.211197 
0.010000 	 0.190000 	 0.248254 
0.010000 	 0.200000 	 0.287718 
0.010000 	 0.210000 	 0.329501 
0.010000 	 0.220000 	 0.373511 
0.010000 	 0.230000 	 0.419658 
0.010000 	 0.240000 	 0.467846 
0.010000 	 0.250000 	 0.517982 
0.010000 	 0.260000 	 0.569966 
0.010000 	 0.270000 	 0.623697 
0.010000 	 0.280000 	 0.679071 
0.010000 	 0.290000 	 0.735981 
0.010000 	 0.300000 	 0.794314 
0.010000 	 0.310000 	 0.853957 
0.010000 	 0.320000 	 0.914791 
0.010000 	 0.330000 	 0.976693 
0.010000 	 0.340000 	 1.039538 
0.010000 	 0.350000 	 1.103197 
0.010000 	 0.360000 	 1.167539 
0.010000 	 0.370000 	 1.232427 
0.010000 	 0.380000 	 1.297723 
0.010000 	 0.390000 	 1.363289 
0.010000 	 0.400000 	 1.428985 
0.010000 	 0.410000 	 1.494668 
0.010000 	 0.420000 	 1.560196 
0.010000 	 0.430000 	 1.625428 
0.010000 	 0.440000 	 1.690227 
0.010000 	 0.450000 	 1.754454 
0.010000 	 0.460000 	 1.817977 
0.010000 	 0.470000 	 1.880667 
0.010000 	 0.480000 	 1.942404 
0.010000 	 0.490000 	 2.003072 
0.010000 	 0.500000 	 2.062565 
0.010000 	 0.510000 	 2.120786 
0.010000 	 0.520000 	 2.177654 
0.010000 	 0.530000 	 2.233095 
0.010000 	 0.540000 	 2.287055 
0.010000 	 0.550000 	 2.339493 
0.010000 	 0.560000 	 2.390391 
0.010000 	 0.570000 	 2.439751 
0.010000 	 0.580000 	 2.487596 
0.010000 	 0.590000 	 2.533977 
0.010000 	 0.600000 	 2.578973 
0.010000 	 0.610000 	 2.622696 
0.010000 	 0.620000 	 2.665294 
0.010000 	 0.630000 	 2.706955 
0.010000 	 0.640000 	 2.747909 
0.010000 	 0.650000 	 2.788440 
0.010000 	 0.660000 	 2.828887 
0.010000 	 0.670000 	 2.869656 
0.010000 	 0.680000 	 2.911225 
0.010000 	 0.690000 	 2.954157 
0.010000 	 0.700000 	 2.999117 
0.010000 	 0.710000 	 3.046883 
0.010000 	 0.720000 	 3.098370 
0.010000 	 0.730000 	 3.154649 
0.010000 	 0.740000 	 3.216980 
0.010000 	 0.750000 	 3.286845 
0.010000 	 0.760000 	 3.365993 
0.010000 	 0.770000 	 3.456490 
0.010000 	 0.780000 	 3.560788 
0.010000 	 0.790000 	 3.681802 
0.010000 	 0.800000 	 3.823016 
0.010000 	 0.810000 	 3.988608 
0.010000 	 0.820000 	 4.183618 
0.010000 	 0.830000 	 4.414161 
0.010000 	 0.840000 	 4.687716 
0.010000 	 0.850000 	 5.013509 
0.010000 	 0.860000 	 5.403039 
0.010000 	 0.870000 	 5.870843 
0.010000 	 0.880000 	 6.435592 
0.010000 	 0.890000 	 7.121741 
0.010000 	 0.900000 	 7.962098 
0.010000 	 0.910000 	 9.001925 
0.010000 	 0.920000 	 10.305778 
0.010000 	 0.930000 	 11.969188 
0.010000 	 0.940000 	 14.139121 
0.010000 	 0.950000 	 17.049448 
0.010000 	 0.960000 	 21.077673 
0.010000 	 0.970000 	 26.806664 
0.010000 	 0.980000 	 34.932259 
0.010000 	 0.990000 	 45.131859 
0.010000 	 1.000000 	 49.546539 
0.010000 	 1.010000 	 -200.000000 
0.020000 	 0.010000 	 -0.002170 
0.020000 	 0.020000 	 -0.002406 
0.020000 	 0.030000 	 -0.002643 
0.020000 	 0.040000 	 -0.002647 
0.020000 	 0.050000 	 -0.001688 
0.020000 	 0.060000 	 0.000876 
0.020000 	 0.070000 	 0.005495 
0.020000 	 0.080000 	 0.012459 
0.020000 	 0.090000 	 0.021936 
0.020000 	 0.100000 	 0.034015 
0.020000 	 0.110000 	 0.048727 
0.020000 	 0.120000 	 0.066071 
0.020000 	 0.130000 	 0.086017 
0.020000 	 0.140000 	 0.108523 
0.020000 	 0.150000 	 0.133533 
0.020000 	 0.160000 	 0.160987 
0.020000 	 0.170000 	 0.190817 
0.020000 	 0.180000 	 0.222952 
0.020000 	 0.190000 	 0.257321 
0.020000 	 0.200000 	 0.293847 
0.020000 	 0.210000 	 0.332454 
0.020000 	 0.220000 	 0.373061 
0.020000 	 0.230000 	 0.415589 
0.020000 	 0.240000 	 0.459953 
0.020000 	 0.250000 	 0.506068 
0.020000 	 0.260000 	 0.553846 
0.020000 	 0.270000 	 0.603197 
0.020000 	 0.280000 	 0.654026 
0.020000 	 0.290000 	 0.706237 
0.020000 	 0.300000 	 0.759732 
0.020000 	 0.310000 	 0.814407 
0.020000 	 0.320000 	 0.870158 
0.020000 	 0.330000 	 0.926875 
0.020000 	 0.340000 	 0.984449 
0.020000 	 0.350000 	 1.042764 
0.020000 	 0.360000 	 1.101705 
0.020000 	 0.370000 	 1.161153 
0.020000 	 0.380000 	 1.220986 
0.020000 	 0.390000 	 1.281083 
0.020000 	 0.400000 	 1.341321 
0.020000 	 0.410000 	 1.401576 
0.020000 	 0.420000 	 1.461724 
0.020000 	 0.430000 	 1.521642 
0.020000 	 0.440000 	 1.581209 
0.020000 	 0.450000 	 1.640306 
0.020000 	 0.460000 	 1.698818 
0.020000 	 0.470000 	 1.756632 
0.020000 	 0.480000 	 1.813644 
0.020000 	 0.490000 	 1.869752 
0.020000 	 0.500000 	 1.924864 
0.020000 	 0.510000 	 1.978898 
0.020000 	 0.520000 	 2.031780 
0.020000 	 0.530000 	 2.083448 
0.020000 	 0.540000 	 2.133854 
0.020000 	 0.550000 	 2.182964 
0.020000 	 0.560000 	 2.230760 
0.020000 	 0.570000 	 2.277245 
0.020000 	 0.580000 	 2.322440 
0.020000 	 0.590000 	 2.366391 
0.020000 	 0.600000 	 2.409168 
0.020000 	 0.610000 	 2.450869 
0.020000 	 0.620000 	 2.491626 
0.020000 	 0.630000 	 2.531603 
0.020000 	 0.640000 	 2.571008 
0.020000 	 0.650000 	 2.610089 
0.020000 	 0.660000 	 2.649146 
0.020000 	 0.670000 	 2.688536 
0.020000 	 0.680000 	 2.728680 
0.020000 	 0.690000 	 2.770071 
0.020000 	 0.700000 	 2.813288 
0.020000 	 0.710000 	 2.859006 
0.020000 	 0.720000 	 2.908013 
0.020000 	 0.730000 	 2.961224 
0.020000 	 0.740000 	 3.019707 
0.020000 	 0.750000 	 3.084705 
0.020000 	 0.760000 	 3.157666 
0.020000 	 0.770000 	 3.240283 
0.020000 	 0.780000 	 3.334528 
0.020000 	 0.790000 	 3.442714 
0.020000 	 0.800000 	 3.567551 
0.020000 	 0.810000 	 3.712220 
0.020000 	 0.820000 	 3.880472 
0.020000 	 0.830000 	 4.076737 
0.020000 	 0.840000 	 4.306271 
0.020000 	 0.850000 	 4.575332 
0.020000 	 0.860000 	 4.891409 
0.020000 	 0.870000 	 5.263515 
0.020000 	 0.880000 	 5.702551 
0.020000 	 0.890000 	 6.221754 
0.020000 	 0.900000 	 6.837216 
0.020000 	 0.910000 	 7.568325 
0.020000 	 0.920000 	 8.437704 
0.020000 	 0.930000 	 9.469265 
0.020000 	 0.940000 	 10.680197 
0.020000 	 0.950000 	 12.054364 
0.020000 	 0.960000 	 13.458890 
0.020000 	 0.970000 	 14.385683 
0.020000 	 0.980000 	 13.142610 
0.020000 	 0.990000 	 4.254932 
0.020000 	 1.000000 	 -30.249985 
0.020000 	 1.010000 	 -150.453461 
0.030000 	 0.010000 	 -0.006737 
0.030000 	 0.020000 	 -0.002641 
0.030000 	 0.030000 	 0.001228 
0.030000 	 0.040000 	 0.005113 
0.030000 	 0.050000 	 0.009508 
0.030000 	 0.060000 	 0.014916 
0.030000 	 0.070000 	 0.021749 
0.030000 	 0.080000 	 0.030316 
0.030000 	 0.090000 	 0.040825 
0.030000 	 0.100000 	 0.053416 
0.030000 	 0.110000 	 0.068168 
0.030000 	 0.120000 	 0.085120 
0.030000 	 0.130000 	 0.104283 
0.030000 	 0.140000 	 0.125644 
0.030000 	 0.150000 	 0.149177 
0.030000 	 0.160000 	 0.174842 
0.030000 	 0.170000 	 0.202592 
0.030000 	 0.180000 	 0.232375 
0.030000 	 0.190000 	 0.264131 
0.030000 	 0.200000 	 0.297800 
0.030000 	 0.210000 	 0.333315 
0.030000 	 0.220000 	 0.370609 
0.030000 	 0.230000 	 0.409611 
0.030000 	 0.240000 	 0.450248 
0.030000 	 0.250000 	 0.492445 
0.030000 	 0.260000 	 0.536124 
0.030000 	 0.270000 	 0.581204 
0.030000 	 0.280000 	 0.627604 
0.030000 	 0.290000 	 0.675238 
0.030000 	 0.300000 	 0.724018 
0.030000 	 0.310000 	 0.773855 
0.030000 	 0.320000 	 0.824655 
0.030000 	 0.330000 	 0.876325 
0.030000 	 0.340000 	 0.928766 
0.030000 	 0.350000 	 0.981880 
0.030000 	 0.360000 	 1.035564 
0.030000 	 0.370000 	 1.089717 
0.030000 	 0.380000 	 1.144233 
0.030000 	 0.390000 	 1.199007 
0.030000 	 0.400000 	 1.253933 
0.030000 	 0.410000 	 1.308902 
0.030000 	 0.420000 	 1.363810 
0.030000 	 0.430000 	 1.418550 
0.030000 	 0.440000 	 1.473017 
0.030000 	 0.450000 	 1.527110 
0.030000 	 0.460000 	 1.580729 
0.030000 	 0.470000 	 1.633777 
0.030000 	 0.480000 	 1.686164 
0.030000 	 0.490000 	 1.737803 
0.030000 	 0.500000 	 1.788614 
0.030000 	 0.510000 	 1.838526 
0.030000 	 0.520000 	 1.887474 
0.030000 	 0.530000 	 1.935404 
0.030000 	 0.540000 	 1.982276 
0.030000 	 0.550000 	 2.028057 
0.030000 	 0.560000 	 2.072733 
0.030000 	 0.570000 	 2.116304 
0.030000 	 0.580000 	 2.158788 
0.030000 	 0.590000 	 2.200223 
0.030000 	 0.600000 	 2.240668 
0.030000 	 0.610000 	 2.280207 
0.030000 	 0.620000 	 2.318952 
0.030000 	 0.630000 	 2.357044 
0.030000 	 0.640000 	 2.394658 
0.030000 	 0.650000 	 2.432008 
0.030000 	 0.660000 	 2.469350 
0.030000 	 0.670000 	 2.506985 
0.030000 	 0.680000 	 2.545272 
0.030000 	 0.690000 	 2.584625 
0.030000 	 0.700000 	 2.625530 
0.030000 	 0.710000 	 2.668548 
0.030000 	 0.720000 	 2.714326 
0.030000 	 0.730000 	 2.763611 
0.030000 	 0.740000 	 2.817262 
0.030000 	 0.750000 	 2.876262 
0.030000 	 0.760000 	 2.941739 
0.030000 	 0.770000 	 3.014982 
0.030000 	 0.780000 	 3.097459 
0.030000 	 0.790000 	 3.190845 
0.030000 	 0.800000 	 3.297036 
0.030000 	 0.810000 	 3.418180 
0.030000 	 0.820000 	 3.556689 
0.030000 	 0.830000 	 3.715261 
0.030000 	 0.840000 	 3.896880 
0.030000 	 0.850000 	 4.104791 
0.030000 	 0.860000 	 4.342439 
0.030000 	 0.870000 	 4.613314 
0.030000 	 0.880000 	 4.920632 
0.030000 	 0.890000 	 5.266701 
0.030000 	 0.900000 	 5.651650 
0.030000 	 0.910000 	 6.070881 
0.030000 	 0.920000 	 6.509833 
0.030000 	 0.930000 	 6.932956 
0.030000 	 0.940000 	 7.259814 
0.030000 	 0.950000 	 7.311746 
0.030000 	 0.960000 	 6.689722 
0.030000 	 0.970000 	 4.489484 
0.030000 	 0.980000 	 -1.362351 
0.030000 	 0.990000 	 -15.567227 
0.030000 	 1.000000 	 -47.734730 
0.030000 	 1.010000 	 -107.445663 
0.040000 	 0.010000 	 -0.011317 
0.040000 	 0.020000 	 -0.002651 
0.040000 	 0.030000 	 0.005075 
0.040000 	 0.040000 	 0.012353 
0.040000 	 0.050000 	 0.019677 
0.040000 	 0.060000 	 0.027511 
0.040000 	 0.070000 	 0.036248 
0.040000 	 0.080000 	 0.046201 
0.040000 	 0.090000 	 0.057603 
0.040000 	 0.100000 	 0.070622 
0.040000 	 0.110000 	 0.085371 
0.040000 	 0.120000 	 0.101923 
0.040000 	 0.130000 	 0.120317 
0.040000 	 0.140000 	 0.140567 
0.040000 	 0.150000 	 0.162669 
0.040000 	 0.160000 	 0.186605 
0.040000 	 0.170000 	 0.212346 
0.040000 	 0.180000 	 0.239853 
0.040000 	 0.190000 	 0.269084 
0.040000 	 0.200000 	 0.299988 
0.040000 	 0.210000 	 0.332512 
0.040000 	 0.220000 	 0.366599 
0.040000 	 0.230000 	 0.402189 
0.040000 	 0.240000 	 0.439219 
0.040000 	 0.250000 	 0.477623 
0.040000 	 0.260000 	 0.517335 
0.040000 	 0.270000 	 0.558284 
0.040000 	 0.280000 	 0.600398 
0.040000 	 0.290000 	 0.643604 
0.040000 	 0.300000 	 0.687825 
0.040000 	 0.310000 	 0.732982 
0.040000 	 0.320000 	 0.778996 
0.040000 	 0.330000 	 0.825785 
0.040000 	 0.340000 	 0.873264 
0.040000 	 0.350000 	 0.921349 
0.040000 	 0.360000 	 0.969952 
0.040000 	 0.370000 	 1.018985 
0.040000 	 0.380000 	 1.068359 
0.040000 	 0.390000 	 1.117983 
0.040000 	 0.400000 	 1.167767 
0.040000 	 0.410000 	 1.217621 
0.040000 	 0.420000 	 1.267452 
0.040000 	 0.430000 	 1.317173 
0.040000 	 0.440000 	 1.366693 
0.040000 	 0.450000 	 1.415926 
0.040000 	 0.460000 	 1.464787 
0.040000 	 0.470000 	 1.513195 
0.040000 	 0.480000 	 1.561071 
0.040000 	 0.490000 	 1.608342 
0.040000 	 0.500000 	 1.654940 
0.040000 	 0.510000 	 1.700803 
0.040000 	 0.520000 	 1.745875 
0.040000 	 0.530000 	 1.790110 
0.040000 	 0.540000 	 1.833471 
0.040000 	 0.550000 	 1.875930 
0.040000 	 0.560000 	 1.917472 
0.040000 	 0.570000 	 1.958096 
0.040000 	 0.580000 	 1.997814 
0.040000 	 0.590000 	 2.036656 
0.040000 	 0.600000 	 2.074670 
0.040000 	 0.610000 	 2.111924 
0.040000 	 0.620000 	 2.148509 
0.040000 	 0.630000 	 2.184541 
0.040000 	 0.640000 	 2.220165 
0.040000 	 0.650000 	 2.255556 
0.040000 	 0.660000 	 2.290922 
0.040000 	 0.670000 	 2.326511 
0.040000 	 0.680000 	 2.362614 
0.040000 	 0.690000 	 2.399567 
0.040000 	 0.700000 	 2.437757 
0.040000 	 0.710000 	 2.477629 
0.040000 	 0.720000 	 2.519690 
0.040000 	 0.730000 	 2.564514 
0.040000 	 0.740000 	 2.612748 
0.040000 	 0.750000 	 2.665118 
0.040000 	 0.760000 	 2.722430 
0.040000 	 0.770000 	 2.785578 
0.040000 	 0.780000 	 2.855538 
0.040000 	 0.790000 	 2.933362 
0.040000 	 0.800000 	 3.020169 
0.040000 	 0.810000 	 3.117119 
0.040000 	 0.820000 	 3.225367 
0.040000 	 0.830000 	 3.345997 
0.040000 	 0.840000 	 3.479899 
0.040000 	 0.850000 	 3.627591 
0.040000 	 0.860000 	 3.788908 
0.040000 	 0.870000 	 3.962507 
0.040000 	 0.880000 	 4.145044 
0.040000 	 0.890000 	 4.329771 
0.040000 	 0.900000 	 4.504110 
0.040000 	 0.910000 	 4.645343 
0.040000 	 0.920000 	 4.712744 
0.040000 	 0.930000 	 4.632858 
0.040000 	 0.940000 	 4.271273 
0.040000 	 0.950000 	 3.377458 
0.040000 	 0.960000 	 1.476147 
0.040000 	 0.970000 	 -2.342834 
0.040000 	 0.980000 	 -9.797322 
0.040000 	 0.990000 	 -23.868366 
0.040000 	 1.000000 	 -48.185425 
0.040000 	 1.010000 	 -79.357170 
0.050000 	 0.010000 	 -0.014364 
0.050000 	 0.020000 	 -0.001728 
0.050000 	 0.030000 	 0.009361 
0.050000 	 0.040000 	 0.019533 
0.050000 	 0.050000 	 0.029320 
0.050000 	 0.060000 	 0.039183 
0.050000 	 0.070000 	 0.049507 
0.050000 	 0.080000 	 0.060608 
0.050000 	 0.090000 	 0.072732 
0.050000 	 0.100000 	 0.086064 
0.050000 	 0.110000 	 0.100742 
0.050000 	 0.120000 	 0.116859 
0.050000 	 0.130000 	 0.134477 
0.050000 	 0.140000 	 0.153632 
0.050000 	 0.150000 	 0.174339 
0.050000 	 0.160000 	 0.196596 
0.050000 	 0.170000 	 0.220391 
0.050000 	 0.180000 	 0.245699 
0.050000 	 0.190000 	 0.272490 
0.050000 	 0.200000 	 0.300726 
0.050000 	 0.210000 	 0.330365 
0.050000 	 0.220000 	 0.361360 
0.050000 	 0.230000 	 0.393660 
0.050000 	 0.240000 	 0.427214 
0.050000 	 0.250000 	 0.461965 
0.050000 	 0.260000 	 0.497856 
0.050000 	 0.270000 	 0.534827 
0.050000 	 0.280000 	 0.572815 
0.050000 	 0.290000 	 0.611759 
0.050000 	 0.300000 	 0.651591 
0.050000 	 0.310000 	 0.692246 
0.050000 	 0.320000 	 0.733655 
0.050000 	 0.330000 	 0.775747 
0.050000 	 0.340000 	 0.818453 
0.050000 	 0.350000 	 0.861699 
0.050000 	 0.360000 	 0.905412 
0.050000 	 0.370000 	 0.949518 
0.050000 	 0.380000 	 0.993940 
0.050000 	 0.390000 	 1.038605 
0.050000 	 0.400000 	 1.083435 
0.050000 	 0.410000 	 1.128354 
0.050000 	 0.420000 	 1.173287 
0.050000 	 0.430000 	 1.218159 
0.050000 	 0.440000 	 1.262895 
0.050000 	 0.450000 	 1.307422 
0.050000 	 0.460000 	 1.351670 
0.050000 	 0.470000 	 1.395571 
0.050000 	 0.480000 	 1.439058 
0.050000 	 0.490000 	 1.482069 
0.050000 	 0.500000 	 1.524547 
0.050000 	 0.510000 	 1.566440 
0.050000 	 0.520000 	 1.607699 
0.050000 	 0.530000 	 1.648284 
0.050000 	 0.540000 	 1.688163 
0.050000 	 0.550000 	 1.727311 
0.050000 	 0.560000 	 1.765712 
0.050000 	 0.570000 	 1.803363 
0.050000 	 0.580000 	 1.840271 
0.050000 	 0.590000 	 1.876457 
0.050000 	 0.600000 	 1.911958 
0.050000 	 0.610000 	 1.946825 
0.050000 	 0.620000 	 1.981131 
0.050000 	 0.630000 	 2.014965 
0.050000 	 0.640000 	 2.048441 
0.050000 	 0.650000 	 2.081696 
0.050000 	 0.660000 	 2.114895 
0.050000 	 0.670000 	 2.148230 
0.050000 	 0.680000 	 2.181926 
0.050000 	 0.690000 	 2.216241 
0.050000 	 0.700000 	 2.251468 
0.050000 	 0.710000 	 2.287939 
0.050000 	 0.720000 	 2.326024 
0.050000 	 0.730000 	 2.366132 
0.050000 	 0.740000 	 2.408708 
0.050000 	 0.750000 	 2.454234 
0.050000 	 0.760000 	 2.503216 
0.050000 	 0.770000 	 2.556178 
0.050000 	 0.780000 	 2.613640 
0.050000 	 0.790000 	 2.676090 
0.050000 	 0.800000 	 2.743942 
0.050000 	 0.810000 	 2.817475 
0.050000 	 0.820000 	 2.896736 
0.050000 	 0.830000 	 2.981403 
0.050000 	 0.840000 	 3.070583 
0.050000 	 0.850000 	 3.162498 
0.050000 	 0.860000 	 3.254018 
0.050000 	 0.870000 	 3.339935 
0.050000 	 0.880000 	 3.411818 
0.050000 	 0.890000 	 3.456175 
0.050000 	 0.900000 	 3.451444 
0.050000 	 0.910000 	 3.362947 
0.050000 	 0.920000 	 3.134261 
0.050000 	 0.930000 	 2.672220 
0.050000 	 0.940000 	 1.820481 
0.050000 	 0.950000 	 0.313015 
0.050000 	 0.960000 	 -2.305650 
0.050000 	 0.970000 	 -6.804982 
0.050000 	 0.980000 	 -14.407379 
0.050000 	 0.990000 	 -26.695759 
0.050000 	 1.000000 	 -44.285145 
0.050000 	 1.010000 	 -61.691525 
0.060000 	 0.010000 	 -0.015033 
0.060000 	 0.020000 	 0.000733 
0.060000 	 0.030000 	 0.014550 
0.060000 	 0.040000 	 0.027081 
0.060000 	 0.050000 	 0.038868 
0.060000 	 0.060000 	 0.050369 
0.060000 	 0.070000 	 0.061963 
0.060000 	 0.080000 	 0.073964 
0.060000 	 0.090000 	 0.086622 
0.060000 	 0.100000 	 0.100134 
0.060000 	 0.110000 	 0.114649 
0.060000 	 0.120000 	 0.130277 
0.060000 	 0.130000 	 0.147097 
0.060000 	 0.140000 	 0.165159 
0.060000 	 0.150000 	 0.184494 
0.060000 	 0.160000 	 0.205115 
0.060000 	 0.170000 	 0.227023 
0.060000 	 0.180000 	 0.250205 
0.060000 	 0.190000 	 0.274642 
0.060000 	 0.200000 	 0.300307 
0.060000 	 0.210000 	 0.327169 
0.060000 	 0.220000 	 0.355190 
0.060000 	 0.230000 	 0.384330 
0.060000 	 0.240000 	 0.414546 
0.060000 	 0.250000 	 0.445790 
0.060000 	 0.260000 	 0.478016 
0.060000 	 0.270000 	 0.511171 
0.060000 	 0.280000 	 0.545205 
0.060000 	 0.290000 	 0.580063 
0.060000 	 0.300000 	 0.615691 
0.060000 	 0.310000 	 0.652032 
0.060000 	 0.320000 	 0.689029 
0.060000 	 0.330000 	 0.726624 
0.060000 	 0.340000 	 0.764756 
0.060000 	 0.350000 	 0.803366 
0.060000 	 0.360000 	 0.842393 
0.060000 	 0.370000 	 0.881775 
0.060000 	 0.380000 	 0.921449 
0.060000 	 0.390000 	 0.961354 
0.060000 	 0.400000 	 1.001427 
0.060000 	 0.410000 	 1.041606 
0.060000 	 0.420000 	 1.081827 
0.060000 	 0.430000 	 1.122030 
0.060000 	 0.440000 	 1.162154 
0.060000 	 0.450000 	 1.202139 
0.060000 	 0.460000 	 1.241927 
0.060000 	 0.470000 	 1.281460 
0.060000 	 0.480000 	 1.320686 
0.060000 	 0.490000 	 1.359552 
0.060000 	 0.500000 	 1.398011 
0.060000 	 0.510000 	 1.436019 
0.060000 	 0.520000 	 1.473535 
0.060000 	 0.530000 	 1.510524 
0.060000 	 0.540000 	 1.546958 
0.060000 	 0.550000 	 1.582814 
0.060000 	 0.560000 	 1.618077 
0.060000 	 0.570000 	 1.652740 
0.060000 	 0.580000 	 1.686807 
0.060000 	 0.590000 	 1.720290 
0.060000 	 0.600000 	 1.753215 
0.060000 	 0.610000 	 1.785618 
0.060000 	 0.620000 	 1.817552 
0.060000 	 0.630000 	 1.849084 
0.060000 	 0.640000 	 1.880297 
0.060000 	 0.650000 	 1.911293 
0.060000 	 0.660000 	 1.942194 
0.060000 	 0.670000 	 1.973139 
0.060000 	 0.680000 	 2.004294 
0.060000 	 0.690000 	 2.035840 
0.060000 	 0.700000 	 2.067985 
0.060000 	 0.710000 	 2.100953 
0.060000 	 0.720000 	 2.134988 
0.060000 	 0.730000 	 2.170347 
0.060000 	 0.740000 	 2.207291 
0.060000 	 0.750000 	 2.246079 
0.060000 	 0.760000 	 2.286949 
0.060000 	 0.770000 	 2.330093 
0.060000 	 0.780000 	 2.375631 
0.060000 	 0.790000 	 2.423555 
0.060000 	 0.800000 	 2.473673 
0.060000 	 0.810000 	 2.525512 
0.060000 	 0.820000 	 2.578187 
0.060000 	 0.830000 	 2.630215 
0.060000 	 0.840000 	 2.679250 
0.060000 	 0.850000 	 2.721689 
0.060000 	 0.860000 	 2.752097 
0.060000 	 0.870000 	 2.762351 
0.060000 	 0.880000 	 2.740323 
0.060000 	 0.890000 	 2.667847 
0.060000 	 0.900000 	 2.517522 
0.060000 	 0.910000 	 2.247574 
0.060000 	 0.920000 	 1.793530 
0.060000 	 0.930000 	 1.054612 
0.060000 	 0.940000 	 -0.128370 
0.060000 	 0.950000 	 -2.007879 
0.060000 	 0.960000 	 -4.979911 
0.060000 	 0.970000 	 -9.638621 
0.060000 	 0.980000 	 -16.768660 
0.060000 	 0.990000 	 -27.038980 
0.060000 	 1.000000 	 -39.803314 
0.060000 	 1.010000 	 -50.292446 
0.070000 	 0.010000 	 -0.012925 
0.070000 	 0.020000 	 0.005127 
0.070000 	 0.030000 	 0.021009 
0.070000 	 0.040000 	 0.035352 
0.070000 	 0.050000 	 0.048682 
0.070000 	 0.060000 	 0.061436 
0.070000 	 0.070000 	 0.073985 
0.070000 	 0.080000 	 0.086633 
0.070000 	 0.090000 	 0.099630 
0.070000 	 0.100000 	 0.113175 
0.070000 	 0.110000 	 0.127424 
0.070000 	 0.120000 	 0.142497 
0.070000 	 0.130000 	 0.158482 
0.070000 	 0.140000 	 0.175443 
0.070000 	 0.150000 	 0.193421 
0.070000 	 0.160000 	 0.212441 
0.070000 	 0.170000 	 0.232514 
0.070000 	 0.180000 	 0.253638 
0.070000 	 0.190000 	 0.275805 
0.070000 	 0.200000 	 0.298997 
0.070000 	 0.210000 	 0.323191 
0.070000 	 0.220000 	 0.348360 
0.070000 	 0.230000 	 0.374471 
0.070000 	 0.240000 	 0.401490 
0.070000 	 0.250000 	 0.429379 
0.070000 	 0.260000 	 0.458100 
0.070000 	 0.270000 	 0.487609 
0.070000 	 0.280000 	 0.517864 
0.070000 	 0.290000 	 0.548822 
0.070000 	 0.300000 	 0.580436 
0.070000 	 0.310000 	 0.612660 
0.070000 	 0.320000 	 0.645446 
0.070000 	 0.330000 	 0.678748 
0.070000 	 0.340000 	 0.712515 
0.070000 	 0.350000 	 0.746700 
0.070000 	 0.360000 	 0.781252 
0.070000 	 0.370000 	 0.816121 
0.070000 	 0.380000 	 0.851258 
0.070000 	 0.390000 	 0.886612 
0.070000 	 0.400000 	 0.922133 
0.070000 	 0.410000 	 0.957771 
0.070000 	 0.420000 	 0.993475 
0.070000 	 0.430000 	 1.029197 
0.070000 	 0.440000 	 1.064887 
0.070000 	 0.450000 	 1.100499 
0.070000 	 0.460000 	 1.135984 
0.070000 	 0.470000 	 1.171299 
0.070000 	 0.480000 	 1.206399 
0.070000 	 0.490000 	 1.241242 
0.070000 	 0.500000 	 1.275789 
0.070000 	 0.510000 	 1.310005 
0.070000 	 0.520000 	 1.343855 
0.070000 	 0.530000 	 1.377309 
0.070000 	 0.540000 	 1.410344 
0.070000 	 0.550000 	 1.442939 
0.070000 	 0.560000 	 1.475078 
0.070000 	 0.570000 	 1.506754 
0.070000 	 0.580000 	 1.537964 
0.070000 	 0.590000 	 1.568715 
0.070000 	 0.600000 	 1.599022 
0.070000 	 0.610000 	 1.628907 
0.070000 	 0.620000 	 1.658406 
0.070000 	 0.630000 	 1.687564 
0.070000 	 0.640000 	 1.716436 
0.070000 	 0.650000 	 1.745093 
0.070000 	 0.660000 	 1.773617 
0.070000 	 0.670000 	 1.802100 
0.070000 	 0.680000 	 1.830650 
0.070000 	 0.690000 	 1.859384 
0.070000 	 0.700000 	 1.888426 
0.070000 	 0.710000 	 1.917909 
0.070000 	 0.720000 	 1.947960 
0.070000 	 0.730000 	 1.978701 
0.070000 	 0.740000 	 2.010231 
0.070000 	 0.750000 	 2.042614 
0.070000 	 0.760000 	 2.075850 
0.070000 	 0.770000 	 2.109851 
0.070000 	 0.780000 	 2.144389 
0.070000 	 0.790000 	 2.179042 
0.070000 	 0.800000 	 2.213109 
0.070000 	 0.810000 	 2.245497 
0.070000 	 0.820000 	 2.274562 
0.070000 	 0.830000 	 2.297893 
0.070000 	 0.840000 	 2.311998 
0.070000 	 0.850000 	 2.311870 
0.070000 	 0.860000 	 2.290344 
0.070000 	 0.870000 	 2.237175 
0.070000 	 0.880000 	 2.137654 
0.070000 	 0.890000 	 1.970539 
0.070000 	 0.900000 	 1.704892 
0.070000 	 0.910000 	 1.295221 
0.070000 	 0.920000 	 0.673983 
0.070000 	 0.930000 	 -0.259884 
0.070000 	 0.940000 	 -1.657987 
0.070000 	 0.950000 	 -3.745762 
0.070000 	 0.960000 	 -6.847812 
0.070000 	 0.970000 	 -11.393926 
0.070000 	 0.980000 	 -17.837029 
0.070000 	 0.990000 	 -26.314188 
0.070000 	 1.000000 	 -35.774136 
0.070000 	 1.010000 	 -42.587257 
0.080000 	 0.010000 	 -0.007907 
0.080000 	 0.020000 	 0.011669 
0.080000 	 0.030000 	 0.028985 
0.080000 	 0.040000 	 0.044616 
0.080000 	 0.050000 	 0.059044 
0.080000 	 0.060000 	 0.072682 
0.080000 	 0.070000 	 0.085879 
0.080000 	 0.080000 	 0.098925 
0.080000 	 0.090000 	 0.112062 
0.080000 	 0.100000 	 0.125488 
0.080000 	 0.110000 	 0.139361 
0.080000 	 0.120000 	 0.153803 
0.080000 	 0.130000 	 0.168910 
0.080000 	 0.140000 	 0.184753 
0.080000 	 0.150000 	 0.201381 
0.080000 	 0.160000 	 0.218828 
0.080000 	 0.170000 	 0.237113 
0.080000 	 0.180000 	 0.256245 
0.080000 	 0.190000 	 0.276221 
0.080000 	 0.200000 	 0.297034 
0.080000 	 0.210000 	 0.318669 
0.080000 	 0.220000 	 0.341105 
0.080000 	 0.230000 	 0.364320 
0.080000 	 0.240000 	 0.388286 
0.080000 	 0.250000 	 0.412973 
0.080000 	 0.260000 	 0.438351 
0.080000 	 0.270000 	 0.464386 
0.080000 	 0.280000 	 0.491043 
0.080000 	 0.290000 	 0.518287 
0.080000 	 0.300000 	 0.546081 
0.080000 	 0.310000 	 0.574387 
0.080000 	 0.320000 	 0.603168 
0.080000 	 0.330000 	 0.632385 
0.080000 	 0.340000 	 0.662000 
0.080000 	 0.350000 	 0.691974 
0.080000 	 0.360000 	 0.722266 
0.080000 	 0.370000 	 0.752840 
0.080000 	 0.380000 	 0.783653 
0.080000 	 0.390000 	 0.814668 
0.080000 	 0.400000 	 0.845846 
0.080000 	 0.410000 	 0.877147 
0.080000 	 0.420000 	 0.908532 
0.080000 	 0.430000 	 0.939964 
0.080000 	 0.440000 	 0.971405 
0.080000 	 0.450000 	 1.002817 
0.080000 	 0.460000 	 1.034165 
0.080000 	 0.470000 	 1.065414 
0.080000 	 0.480000 	 1.096528 
0.080000 	 0.490000 	 1.127476 
0.080000 	 0.500000 	 1.158226 
0.080000 	 0.510000 	 1.188750 
0.080000 	 0.520000 	 1.219020 
0.080000 	 0.530000 	 1.249012 
0.080000 	 0.540000 	 1.278704 
0.080000 	 0.550000 	 1.308079 
0.080000 	 0.560000 	 1.337122 
0.080000 	 0.570000 	 1.365823 
0.080000 	 0.580000 	 1.394177 
0.080000 	 0.590000 	 1.422185 
0.080000 	 0.600000 	 1.449850 
0.080000 	 0.610000 	 1.477187 
0.080000 	 0.620000 	 1.504212 
0.080000 	 0.630000 	 1.530953 
0.080000 	 0.640000 	 1.557442 
0.080000 	 0.650000 	 1.583719 
0.080000 	 0.660000 	 1.609830 
0.080000 	 0.670000 	 1.635828 
0.080000 	 0.680000 	 1.661768 
0.080000 	 0.690000 	 1.687709 
0.080000 	 0.700000 	 1.713706 
0.080000 	 0.710000 	 1.739804 
0.080000 	 0.720000 	 1.766035 
0.080000 	 0.730000 	 1.792401 
0.080000 	 0.740000 	 1.818861 
0.080000 	 0.750000 	 1.845311 
0.080000 	 0.760000 	 1.871553 
0.080000 	 0.770000 	 1.897257 
0.080000 	 0.780000 	 1.921910 
0.080000 	 0.790000 	 1.944745 
0.080000 	 0.800000 	 1.964646 
0.080000 	 0.810000 	 1.980017 
0.080000 	 0.820000 	 1.988611 
0.080000 	 0.830000 	 1.987284 
0.080000 	 0.840000 	 1.971661 
0.080000 	 0.850000 	 1.935665 
0.080000 	 0.860000 	 1.870856 
0.080000 	 0.870000 	 1.765472 
0.080000 	 0.880000 	 1.603050 
0.080000 	 0.890000 	 1.360403 
0.080000 	 0.900000 	 1.004645 
0.080000 	 0.910000 	 0.488801 
0.080000 	 0.920000 	 -0.254599 
0.080000 	 0.930000 	 -1.322595 
0.080000 	 0.940000 	 -2.853779 
0.080000 	 0.950000 	 -5.041453 
0.080000 	 0.960000 	 -8.140217 
0.080000 	 0.970000 	 -12.442717 
0.080000 	 0.980000 	 -18.170893 
0.080000 	 0.990000 	 -25.180046 
0.080000 	 1.000000 	 -32.382465 
0.080000 	 1.010000 	 -37.112198 
0.090000 	 0.010000 	 -0.000000 
0.090000 	 0.020000 	 0.020439 
0.090000 	 0.030000 	 0.038622 
0.090000 	 0.040000 	 0.055054 
0.090000 	 0.050000 	 0.070168 
0.090000 	 0.060000 	 0.084340 
0.090000 	 0.070000 	 0.097890 
0.090000 	 0.080000 	 0.111093 
0.090000 	 0.090000 	 0.124178 
0.090000 	 0.100000 	 0.137334 
0.090000 	 0.110000 	 0.150716 
0.090000 	 0.120000 	 0.164448 
0.090000 	 0.130000 	 0.178627 
0.090000 	 0.140000 	 0.193329 
0.090000 	 0.150000 	 0.208609 
0.090000 	 0.160000 	 0.224506 
0.090000 	 0.170000 	 0.241046 
0.090000 	 0.180000 	 0.258245 
0.090000 	 0.190000 	 0.276108 
0.090000 	 0.200000 	 0.294633 
0.090000 	 0.210000 	 0.313813 
0.090000 	 0.220000 	 0.333636 
0.090000 	 0.230000 	 0.354084 
0.090000 	 0.240000 	 0.375138 
0.090000 	 0.250000 	 0.396776 
0.090000 	 0.260000 	 0.418974 
0.090000 	 0.270000 	 0.441705 
0.090000 	 0.280000 	 0.464944 
0.090000 	 0.290000 	 0.488661 
0.090000 	 0.300000 	 0.512829 
0.090000 	 0.310000 	 0.537418 
0.090000 	 0.320000 	 0.562398 
0.090000 	 0.330000 	 0.587741 
0.090000 	 0.340000 	 0.613416 
0.090000 	 0.350000 	 0.639393 
0.090000 	 0.360000 	 0.665643 
0.090000 	 0.370000 	 0.692135 
0.090000 	 0.380000 	 0.718841 
0.090000 	 0.390000 	 0.745730 
0.090000 	 0.400000 	 0.772774 
0.090000 	 0.410000 	 0.799944 
0.090000 	 0.420000 	 0.827211 
0.090000 	 0.430000 	 0.854546 
0.090000 	 0.440000 	 0.881923 
0.090000 	 0.450000 	 0.909314 
0.090000 	 0.460000 	 0.936692 
0.090000 	 0.470000 	 0.964031 
0.090000 	 0.480000 	 0.991306 
0.090000 	 0.490000 	 1.018492 
0.090000 	 0.500000 	 1.045566 
0.090000 	 0.510000 	 1.072505 
0.090000 	 0.520000 	 1.099289 
0.090000 	 0.530000 	 1.125898 
0.090000 	 0.540000 	 1.152314 
0.090000 	 0.550000 	 1.178522 
0.090000 	 0.560000 	 1.204509 
0.090000 	 0.570000 	 1.230263 
0.090000 	 0.580000 	 1.255776 
0.090000 	 0.590000 	 1.281045 
0.090000 	 0.600000 	 1.306067 
0.090000 	 0.610000 	 1.330844 
0.090000 	 0.620000 	 1.355381 
0.090000 	 0.630000 	 1.379688 
0.090000 	 0.640000 	 1.403778 
0.090000 	 0.650000 	 1.427664 
0.090000 	 0.660000 	 1.451362 
0.090000 	 0.670000 	 1.474889 
0.090000 	 0.680000 	 1.498258 
0.090000 	 0.690000 	 1.521474 
0.090000 	 0.700000 	 1.544531 
0.090000 	 0.710000 	 1.567405 
0.090000 	 0.720000 	 1.590042 
0.090000 	 0.730000 	 1.612342 
0.090000 	 0.740000 	 1.634147 
0.090000 	 0.750000 	 1.655212 
0.090000 	 0.760000 	 1.675172 
0.090000 	 0.770000 	 1.693499 
0.090000 	 0.780000 	 1.709445 
0.090000 	 0.790000 	 1.721960 
0.090000 	 0.800000 	 1.729593 
0.090000 	 0.810000 	 1.730348 
0.090000 	 0.820000 	 1.721497 
0.090000 	 0.830000 	 1.699321 
0.090000 	 0.840000 	 1.658763 
0.090000 	 0.850000 	 1.592940 
0.090000 	 0.860000 	 1.492466 
0.090000 	 0.870000 	 1.344505 
0.090000 	 0.880000 	 1.131424 
0.090000 	 0.890000 	 0.828887 
0.090000 	 0.900000 	 0.403141 
0.090000 	 0.910000 	 -0.192786 
0.090000 	 0.920000 	 -1.024296 
0.090000 	 0.930000 	 -2.181898 
0.090000 	 0.940000 	 -3.788642 
0.090000 	 0.950000 	 -6.005165 
0.090000 	 0.960000 	 -9.023558 
0.090000 	 0.970000 	 -13.029456 
0.090000 	 0.980000 	 -18.093039 
0.090000 	 0.990000 	 -23.936255 
0.090000 	 1.000000 	 -29.571115 
0.090000 	 1.010000 	 -33.039749 
0.100000 	 0.010000 	 0.010680 
0.100000 	 0.020000 	 0.031425 
0.100000 	 0.030000 	 0.049979 
0.100000 	 0.040000 	 0.066777 
0.100000 	 0.050000 	 0.082200 
0.100000 	 0.060000 	 0.096582 
0.100000 	 0.070000 	 0.110213 
0.100000 	 0.080000 	 0.123345 
0.100000 	 0.090000 	 0.136191 
0.100000 	 0.100000 	 0.148929 
0.100000 	 0.110000 	 0.161708 
0.100000 	 0.120000 	 0.174649 
0.100000 	 0.130000 	 0.187848 
0.100000 	 0.140000 	 0.201383 
0.100000 	 0.150000 	 0.215312 
0.100000 	 0.160000 	 0.229677 
0.100000 	 0.170000 	 0.244511 
0.100000 	 0.180000 	 0.259832 
0.100000 	 0.190000 	 0.275654 
0.100000 	 0.200000 	 0.291979 
0.100000 	 0.210000 	 0.308806 
0.100000 	 0.220000 	 0.326130 