VARIABLES = "X", "Y", "PHI"
ZONE T = "BLOCK1", I = 101, J = 101, F = POINT

0.010000 	 0.010000 	 0.000000 
0.010000 	 0.020000 	 0.000000 
0.010000 	 0.030000 	 0.000000 
0.010000 	 0.040000 	 0.000000 
0.010000 	 0.050000 	 0.000000 
0.010000 	 0.060000 	 0.000000 
0.010000 	 0.070000 	 0.000000 
0.010000 	 0.080000 	 0.000000 
0.010000 	 0.090000 	 0.000000 
0.010000 	 0.100000 	 0.000000 
0.010000 	 0.110000 	 0.000000 
0.010000 	 0.120000 	 0.000000 
0.010000 	 0.130000 	 0.000000 
0.010000 	 0.140000 	 0.000000 
0.010000 	 0.150000 	 0.000000 
0.010000 	 0.160000 	 0.000000 
0.010000 	 0.170000 	 0.000000 
0.010000 	 0.180000 	 0.000000 
0.010000 	 0.190000 	 0.000000 
0.010000 	 0.200000 	 0.000000 
0.010000 	 0.210000 	 0.000000 
0.010000 	 0.220000 	 0.000000 
0.010000 	 0.230000 	 0.000000 
0.010000 	 0.240000 	 0.000000 
0.010000 	 0.250000 	 0.000000 
0.010000 	 0.260000 	 0.000000 
0.010000 	 0.270000 	 0.000000 
0.010000 	 0.280000 	 0.000000 
0.010000 	 0.290000 	 0.000000 
0.010000 	 0.300000 	 0.000000 
0.010000 	 0.310000 	 0.000000 
0.010000 	 0.320000 	 0.000000 
0.010000 	 0.330000 	 0.000000 
0.010000 	 0.340000 	 0.000000 
0.010000 	 0.350000 	 0.000000 
0.010000 	 0.360000 	 0.000000 
0.010000 	 0.370000 	 0.000000 
0.010000 	 0.380000 	 0.000000 
0.010000 	 0.390000 	 0.000000 
0.010000 	 0.400000 	 0.000000 
0.010000 	 0.410000 	 0.000000 
0.010000 	 0.420000 	 0.000000 
0.010000 	 0.430000 	 0.000000 
0.010000 	 0.440000 	 0.000000 
0.010000 	 0.450000 	 0.000000 
0.010000 	 0.460000 	 0.000000 
0.010000 	 0.470000 	 0.000000 
0.010000 	 0.480000 	 0.000000 
0.010000 	 0.490000 	 0.000000 
0.010000 	 0.500000 	 0.000000 
0.010000 	 0.510000 	 0.000000 
0.010000 	 0.520000 	 0.000000 
0.010000 	 0.530000 	 0.000000 
0.010000 	 0.540000 	 0.000000 
0.010000 	 0.550000 	 0.000000 
0.010000 	 0.560000 	 0.000000 
0.010000 	 0.570000 	 0.000000 
0.010000 	 0.580000 	 0.000000 
0.010000 	 0.590000 	 0.000000 
0.010000 	 0.600000 	 0.000000 
0.010000 	 0.610000 	 0.000000 
0.010000 	 0.620000 	 0.000000 
0.010000 	 0.630000 	 0.000000 
0.010000 	 0.640000 	 0.000000 
0.010000 	 0.650000 	 0.000000 
0.010000 	 0.660000 	 0.000000 
0.010000 	 0.670000 	 0.000000 
0.010000 	 0.680000 	 0.000000 
0.010000 	 0.690000 	 0.000000 
0.010000 	 0.700000 	 0.000000 
0.010000 	 0.710000 	 0.000000 
0.010000 	 0.720000 	 0.000000 
0.010000 	 0.730000 	 0.000000 
0.010000 	 0.740000 	 0.000000 
0.010000 	 0.750000 	 0.000000 
0.010000 	 0.760000 	 0.000000 
0.010000 	 0.770000 	 0.000000 
0.010000 	 0.780000 	 0.000000 
0.010000 	 0.790000 	 0.000000 
0.010000 	 0.800000 	 0.000000 
0.010000 	 0.810000 	 0.000000 
0.010000 	 0.820000 	 0.000000 
0.010000 	 0.830000 	 0.000000 
0.010000 	 0.840000 	 0.000000 
0.010000 	 0.850000 	 0.000000 
0.010000 	 0.860000 	 0.000000 
0.010000 	 0.870000 	 0.000000 
0.010000 	 0.880000 	 0.000000 
0.010000 	 0.890000 	 0.000000 
0.010000 	 0.900000 	 0.000000 
0.010000 	 0.910000 	 0.000000 
0.010000 	 0.920000 	 0.000000 
0.010000 	 0.930000 	 0.000000 
0.010000 	 0.940000 	 0.000000 
0.010000 	 0.950000 	 0.000000 
0.010000 	 0.960000 	 0.000000 
0.010000 	 0.970000 	 0.000000 
0.010000 	 0.980000 	 0.000000 
0.010000 	 0.990000 	 0.000000 
0.010000 	 1.000000 	 0.000000 
0.010000 	 1.010000 	 0.000000 
0.020000 	 0.010000 	 0.000000 
0.020000 	 0.020000 	 0.000000 
0.020000 	 0.030000 	 0.000001 
0.020000 	 0.040000 	 0.000001 
0.020000 	 0.050000 	 0.000002 
0.020000 	 0.060000 	 0.000002 
0.020000 	 0.070000 	 0.000002 
0.020000 	 0.080000 	 0.000002 
0.020000 	 0.090000 	 0.000002 
0.020000 	 0.100000 	 0.000001 
0.020000 	 0.110000 	 0.000000 
0.020000 	 0.120000 	 -0.000001 
0.020000 	 0.130000 	 -0.000002 
0.020000 	 0.140000 	 -0.000004 
0.020000 	 0.150000 	 -0.000007 
0.020000 	 0.160000 	 -0.000010 
0.020000 	 0.170000 	 -0.000013 
0.020000 	 0.180000 	 -0.000016 
0.020000 	 0.190000 	 -0.000020 
0.020000 	 0.200000 	 -0.000025 
0.020000 	 0.210000 	 -0.000030 
0.020000 	 0.220000 	 -0.000035 
0.020000 	 0.230000 	 -0.000041 
0.020000 	 0.240000 	 -0.000047 
0.020000 	 0.250000 	 -0.000053 
0.020000 	 0.260000 	 -0.000060 
0.020000 	 0.270000 	 -0.000067 
0.020000 	 0.280000 	 -0.000074 
0.020000 	 0.290000 	 -0.000082 
0.020000 	 0.300000 	 -0.000090 
0.020000 	 0.310000 	 -0.000098 
0.020000 	 0.320000 	 -0.000106 
0.020000 	 0.330000 	 -0.000114 
0.020000 	 0.340000 	 -0.000122 
0.020000 	 0.350000 	 -0.000130 
0.020000 	 0.360000 	 -0.000138 
0.020000 	 0.370000 	 -0.000146 
0.020000 	 0.380000 	 -0.000154 
0.020000 	 0.390000 	 -0.000162 
0.020000 	 0.400000 	 -0.000169 
0.020000 	 0.410000 	 -0.000176 
0.020000 	 0.420000 	 -0.000183 
0.020000 	 0.430000 	 -0.000189 
0.020000 	 0.440000 	 -0.000195 
0.020000 	 0.450000 	 -0.000201 
0.020000 	 0.460000 	 -0.000206 
0.020000 	 0.470000 	 -0.000210 
0.020000 	 0.480000 	 -0.000214 
0.020000 	 0.490000 	 -0.000217 
0.020000 	 0.500000 	 -0.000220 
0.020000 	 0.510000 	 -0.000222 
0.020000 	 0.520000 	 -0.000224 
0.020000 	 0.530000 	 -0.000225 
0.020000 	 0.540000 	 -0.000225 
0.020000 	 0.550000 	 -0.000225 
0.020000 	 0.560000 	 -0.000224 
0.020000 	 0.570000 	 -0.000223 
0.020000 	 0.580000 	 -0.000221 
0.020000 	 0.590000 	 -0.000219 
0.020000 	 0.600000 	 -0.000216 
0.020000 	 0.610000 	 -0.000213 
0.020000 	 0.620000 	 -0.000209 
0.020000 	 0.630000 	 -0.000205 
0.020000 	 0.640000 	 -0.000201 
0.020000 	 0.650000 	 -0.000196 
0.020000 	 0.660000 	 -0.000192 
0.020000 	 0.670000 	 -0.000187 
0.020000 	 0.680000 	 -0.000181 
0.020000 	 0.690000 	 -0.000176 
0.020000 	 0.700000 	 -0.000171 
0.020000 	 0.710000 	 -0.000166 
0.020000 	 0.720000 	 -0.000160 
0.020000 	 0.730000 	 -0.000155 
0.020000 	 0.740000 	 -0.000150 
0.020000 	 0.750000 	 -0.000146 
0.020000 	 0.760000 	 -0.000141 
0.020000 	 0.770000 	 -0.000137 
0.020000 	 0.780000 	 -0.000133 
0.020000 	 0.790000 	 -0.000130 
0.020000 	 0.800000 	 -0.000127 
0.020000 	 0.810000 	 -0.000125 
0.020000 	 0.820000 	 -0.000124 
0.020000 	 0.830000 	 -0.000124 
0.020000 	 0.840000 	 -0.000125 
0.020000 	 0.850000 	 -0.000128 
0.020000 	 0.860000 	 -0.000132 
0.020000 	 0.870000 	 -0.000140 
0.020000 	 0.880000 	 -0.000151 
0.020000 	 0.890000 	 -0.000166 
0.020000 	 0.900000 	 -0.000187 
0.020000 	 0.910000 	 -0.000215 
0.020000 	 0.920000 	 -0.000254 
0.020000 	 0.930000 	 -0.000307 
0.020000 	 0.940000 	 -0.000380 
0.020000 	 0.950000 	 -0.000481 
0.020000 	 0.960000 	 -0.000625 
0.020000 	 0.970000 	 -0.000833 
0.020000 	 0.980000 	 -0.001138 
0.020000 	 0.990000 	 -0.001553 
0.020000 	 1.000000 	 -0.001845 
0.020000 	 1.010000 	 0.000000 
0.030000 	 0.010000 	 0.000000 
0.030000 	 0.020000 	 0.000001 
0.030000 	 0.030000 	 0.000002 
0.030000 	 0.040000 	 0.000003 
0.030000 	 0.050000 	 0.000005 
0.030000 	 0.060000 	 0.000006 
0.030000 	 0.070000 	 0.000006 
0.030000 	 0.080000 	 0.000005 
0.030000 	 0.090000 	 0.000004 
0.030000 	 0.100000 	 0.000001 
0.030000 	 0.110000 	 -0.000003 
0.030000 	 0.120000 	 -0.000008 
0.030000 	 0.130000 	 -0.000014 
0.030000 	 0.140000 	 -0.000022 
0.030000 	 0.150000 	 -0.000031 
0.030000 	 0.160000 	 -0.000042 
0.030000 	 0.170000 	 -0.000054 
0.030000 	 0.180000 	 -0.000068 
0.030000 	 0.190000 	 -0.000083 
0.030000 	 0.200000 	 -0.000099 
0.030000 	 0.210000 	 -0.000118 
0.030000 	 0.220000 	 -0.000137 
0.030000 	 0.230000 	 -0.000158 
0.030000 	 0.240000 	 -0.000181 
0.030000 	 0.250000 	 -0.000205 
0.030000 	 0.260000 	 -0.000229 
0.030000 	 0.270000 	 -0.000256 
0.030000 	 0.280000 	 -0.000283 
0.030000 	 0.290000 	 -0.000311 
0.030000 	 0.300000 	 -0.000340 
0.030000 	 0.310000 	 -0.000369 
0.030000 	 0.320000 	 -0.000399 
0.030000 	 0.330000 	 -0.000429 
0.030000 	 0.340000 	 -0.000459 
0.030000 	 0.350000 	 -0.000490 
0.030000 	 0.360000 	 -0.000520 
0.030000 	 0.370000 	 -0.000550 
0.030000 	 0.380000 	 -0.000579 
0.030000 	 0.390000 	 -0.000607 
0.030000 	 0.400000 	 -0.000635 
0.030000 	 0.410000 	 -0.000661 
0.030000 	 0.420000 	 -0.000687 
0.030000 	 0.430000 	 -0.000711 
0.030000 	 0.440000 	 -0.000733 
0.030000 	 0.450000 	 -0.000754 
0.030000 	 0.460000 	 -0.000773 
0.030000 	 0.470000 	 -0.000790 
0.030000 	 0.480000 	 -0.000805 
0.030000 	 0.490000 	 -0.000819 
0.030000 	 0.500000 	 -0.000830 
0.030000 	 0.510000 	 -0.000839 
0.030000 	 0.520000 	 -0.000846 
0.030000 	 0.530000 	 -0.000851 
0.030000 	 0.540000 	 -0.000853 
0.030000 	 0.550000 	 -0.000854 
0.030000 	 0.560000 	 -0.000852 
0.030000 	 0.570000 	 -0.000849 
0.030000 	 0.580000 	 -0.000844 
0.030000 	 0.590000 	 -0.000836 
0.030000 	 0.600000 	 -0.000827 
0.030000 	 0.610000 	 -0.000816 
0.030000 	 0.620000 	 -0.000804 
0.030000 	 0.630000 	 -0.000791 
0.030000 	 0.640000 	 -0.000776 
0.030000 	 0.650000 	 -0.000760 
0.030000 	 0.660000 	 -0.000743 
0.030000 	 0.670000 	 -0.000725 
0.030000 	 0.680000 	 -0.000707 
0.030000 	 0.690000 	 -0.000688 
0.030000 	 0.700000 	 -0.000669 
0.030000 	 0.710000 	 -0.000649 
0.030000 	 0.720000 	 -0.000630 
0.030000 	 0.730000 	 -0.000611 
0.030000 	 0.740000 	 -0.000593 
0.030000 	 0.750000 	 -0.000575 
0.030000 	 0.760000 	 -0.000558 
0.030000 	 0.770000 	 -0.000542 
0.030000 	 0.780000 	 -0.000528 
0.030000 	 0.790000 	 -0.000515 
0.030000 	 0.800000 	 -0.000505 
0.030000 	 0.810000 	 -0.000497 
0.030000 	 0.820000 	 -0.000492 
0.030000 	 0.830000 	 -0.000491 
0.030000 	 0.840000 	 -0.000495 
0.030000 	 0.850000 	 -0.000504 
0.030000 	 0.860000 	 -0.000521 
0.030000 	 0.870000 	 -0.000547 
0.030000 	 0.880000 	 -0.000584 
0.030000 	 0.890000 	 -0.000636 
0.030000 	 0.900000 	 -0.000706 
0.030000 	 0.910000 	 -0.000801 
0.030000 	 0.920000 	 -0.000928 
0.030000 	 0.930000 	 -0.001097 
0.030000 	 0.940000 	 -0.001319 
0.030000 	 0.950000 	 -0.001612 
0.030000 	 0.960000 	 -0.001996 
0.030000 	 0.970000 	 -0.002492 
0.030000 	 0.980000 	 -0.003100 
0.030000 	 0.990000 	 -0.003692 
0.030000 	 1.000000 	 -0.003603 
0.030000 	 1.010000 	 0.000000 
0.040000 	 0.010000 	 0.000000 
0.040000 	 0.020000 	 0.000001 
0.040000 	 0.030000 	 0.000003 
0.040000 	 0.040000 	 0.000006 
0.040000 	 0.050000 	 0.000008 
0.040000 	 0.060000 	 0.000009 
0.040000 	 0.070000 	 0.000009 
0.040000 	 0.080000 	 0.000007 
0.040000 	 0.090000 	 0.000003 
0.040000 	 0.100000 	 -0.000004 
0.040000 	 0.110000 	 -0.000012 
0.040000 	 0.120000 	 -0.000024 
0.040000 	 0.130000 	 -0.000038 
0.040000 	 0.140000 	 -0.000055 
0.040000 	 0.150000 	 -0.000075 
0.040000 	 0.160000 	 -0.000098 
0.040000 	 0.170000 	 -0.000125 
0.040000 	 0.180000 	 -0.000154 
0.040000 	 0.190000 	 -0.000187 
0.040000 	 0.200000 	 -0.000222 
0.040000 	 0.210000 	 -0.000261 
0.040000 	 0.220000 	 -0.000303 
0.040000 	 0.230000 	 -0.000348 
0.040000 	 0.240000 	 -0.000396 
0.040000 	 0.250000 	 -0.000446 
0.040000 	 0.260000 	 -0.000499 
0.040000 	 0.270000 	 -0.000554 
0.040000 	 0.280000 	 -0.000612 
0.040000 	 0.290000 	 -0.000671 
0.040000 	 0.300000 	 -0.000732 
0.040000 	 0.310000 	 -0.000794 
0.040000 	 0.320000 	 -0.000857 
0.040000 	 0.330000 	 -0.000921 
0.040000 	 0.340000 	 -0.000985 
0.040000 	 0.350000 	 -0.001049 
0.040000 	 0.360000 	 -0.001113 
0.040000 	 0.370000 	 -0.001176 
0.040000 	 0.380000 	 -0.001238 
0.040000 	 0.390000 	 -0.001298 
0.040000 	 0.400000 	 -0.001357 
0.040000 	 0.410000 	 -0.001414 
0.040000 	 0.420000 	 -0.001468 
0.040000 	 0.430000 	 -0.001519 
0.040000 	 0.440000 	 -0.001568 
0.040000 	 0.450000 	 -0.001613 
0.040000 	 0.460000 	 -0.001654 
0.040000 	 0.470000 	 -0.001692 
0.040000 	 0.480000 	 -0.001726 
0.040000 	 0.490000 	 -0.001756 
0.040000 	 0.500000 	 -0.001781 
0.040000 	 0.510000 	 -0.001803 
0.040000 	 0.520000 	 -0.001819 
0.040000 	 0.530000 	 -0.001832 
0.040000 	 0.540000 	 -0.001839 
0.040000 	 0.550000 	 -0.001843 
0.040000 	 0.560000 	 -0.001842 
0.040000 	 0.570000 	 -0.001837 
0.040000 	 0.580000 	 -0.001828 
0.040000 	 0.590000 	 -0.001815 
0.040000 	 0.600000 	 -0.001798 
0.040000 	 0.610000 	 -0.001777 
0.040000 	 0.620000 	 -0.001753 
0.040000 	 0.630000 	 -0.001726 
0.040000 	 0.640000 	 -0.001697 
0.040000 	 0.650000 	 -0.001664 
0.040000 	 0.660000 	 -0.001630 
0.040000 	 0.670000 	 -0.001594 
0.040000 	 0.680000 	 -0.001556 
0.040000 	 0.690000 	 -0.001517 
0.040000 	 0.700000 	 -0.001477 
0.040000 	 0.710000 	 -0.001437 
0.040000 	 0.720000 	 -0.001396 
0.040000 	 0.730000 	 -0.001357 
0.040000 	 0.740000 	 -0.001317 
0.040000 	 0.750000 	 -0.001280 
0.040000 	 0.760000 	 -0.001243 
0.040000 	 0.770000 	 -0.001210 
0.040000 	 0.780000 	 -0.001179 
0.040000 	 0.790000 	 -0.001151 
0.040000 	 0.800000 	 -0.001128 
0.040000 	 0.810000 	 -0.001110 
0.040000 	 0.820000 	 -0.001099 
0.040000 	 0.830000 	 -0.001095 
0.040000 	 0.840000 	 -0.001101 
0.040000 	 0.850000 	 -0.001118 
0.040000 	 0.860000 	 -0.001150 
0.040000 	 0.870000 	 -0.001199 
0.040000 	 0.880000 	 -0.001271 
0.040000 	 0.890000 	 -0.001370 
0.040000 	 0.900000 	 -0.001505 
0.040000 	 0.910000 	 -0.001684 
0.040000 	 0.920000 	 -0.001919 
0.040000 	 0.930000 	 -0.002223 
0.040000 	 0.940000 	 -0.002612 
0.040000 	 0.950000 	 -0.003103 
0.040000 	 0.960000 	 -0.003709 
0.040000 	 0.970000 	 -0.004424 
0.040000 	 0.980000 	 -0.005170 
0.040000 	 0.990000 	 -0.005654 
0.040000 	 1.000000 	 -0.004898 
0.040000 	 1.010000 	 0.000000 
0.050000 	 0.010000 	 0.000000 
0.050000 	 0.020000 	 0.000002 
0.050000 	 0.030000 	 0.000005 
0.050000 	 0.040000 	 0.000008 
0.050000 	 0.050000 	 0.000011 
0.050000 	 0.060000 	 0.000011 
0.050000 	 0.070000 	 0.000010 
0.050000 	 0.080000 	 0.000005 
0.050000 	 0.090000 	 -0.000003 
0.050000 	 0.100000 	 -0.000015 
0.050000 	 0.110000 	 -0.000031 
0.050000 	 0.120000 	 -0.000051 
0.050000 	 0.130000 	 -0.000076 
0.050000 	 0.140000 	 -0.000106 
0.050000 	 0.150000 	 -0.000141 
0.050000 	 0.160000 	 -0.000180 
0.050000 	 0.170000 	 -0.000225 
0.050000 	 0.180000 	 -0.000276 
0.050000 	 0.190000 	 -0.000331 
0.050000 	 0.200000 	 -0.000392 
0.050000 	 0.210000 	 -0.000458 
0.050000 	 0.220000 	 -0.000529 
0.050000 	 0.230000 	 -0.000604 
0.050000 	 0.240000 	 -0.000685 
0.050000 	 0.250000 	 -0.000769 
0.050000 	 0.260000 	 -0.000858 
0.050000 	 0.270000 	 -0.000951 
0.050000 	 0.280000 	 -0.001047 
0.050000 	 0.290000 	 -0.001147 
0.050000 	 0.300000 	 -0.001249 
0.050000 	 0.310000 	 -0.001353 
0.050000 	 0.320000 	 -0.001459 
0.050000 	 0.330000 	 -0.001566 
0.050000 	 0.340000 	 -0.001673 
0.050000 	 0.350000 	 -0.001781 
0.050000 	 0.360000 	 -0.001888 
0.050000 	 0.370000 	 -0.001994 
0.050000 	 0.380000 	 -0.002098 
0.050000 	 0.390000 	 -0.002200 
0.050000 	 0.400000 	 -0.002299 
0.050000 	 0.410000 	 -0.002395 
0.050000 	 0.420000 	 -0.002487 
0.050000 	 0.430000 	 -0.002575 
0.050000 	 0.440000 	 -0.002658 
0.050000 	 0.450000 	 -0.002735 
0.050000 	 0.460000 	 -0.002807 
0.050000 	 0.470000 	 -0.002872 
0.050000 	 0.480000 	 -0.002932 
0.050000 	 0.490000 	 -0.002984 
0.050000 	 0.500000 	 -0.003030 
0.050000 	 0.510000 	 -0.003068 
0.050000 	 0.520000 	 -0.003100 
0.050000 	 0.530000 	 -0.003124 
0.050000 	 0.540000 	 -0.003141 
0.050000 	 0.550000 	 -0.003150 
0.050000 	 0.560000 	 -0.003152 
0.050000 	 0.570000 	 -0.003147 
0.050000 	 0.580000 	 -0.003136 
0.050000 	 0.590000 	 -0.003117 
0.050000 	 0.600000 	 -0.003092 
0.050000 	 0.610000 	 -0.003061 
0.050000 	 0.620000 	 -0.003024 
0.050000 	 0.630000 	 -0.002982 
0.050000 	 0.640000 	 -0.002935 
0.050000 	 0.650000 	 -0.002884 
0.050000 	 0.660000 	 -0.002828 
0.050000 	 0.670000 	 -0.002770 
0.050000 	 0.680000 	 -0.002708 
0.050000 	 0.690000 	 -0.002644 
0.050000 	 0.700000 	 -0.002578 
0.050000 	 0.710000 	 -0.002512 
0.050000 	 0.720000 	 -0.002445 
0.050000 	 0.730000 	 -0.002378 
0.050000 	 0.740000 	 -0.002312 
0.050000 	 0.750000 	 -0.002248 
0.050000 	 0.760000 	 -0.002187 
0.050000 	 0.770000 	 -0.002129 
0.050000 	 0.780000 	 -0.002076 
0.050000 	 0.790000 	 -0.002028 
0.050000 	 0.800000 	 -0.001988 
0.050000 	 0.810000 	 -0.001956 
0.050000 	 0.820000 	 -0.001934 
0.050000 	 0.830000 	 -0.001924 
0.050000 	 0.840000 	 -0.001929 
0.050000 	 0.850000 	 -0.001953 
0.050000 	 0.860000 	 -0.001999 
0.050000 	 0.870000 	 -0.002073 
0.050000 	 0.880000 	 -0.002180 
0.050000 	 0.890000 	 -0.002329 
0.050000 	 0.900000 	 -0.002529 
0.050000 	 0.910000 	 -0.002793 
0.050000 	 0.920000 	 -0.003132 
0.050000 	 0.930000 	 -0.003564 
0.050000 	 0.940000 	 -0.004101 
0.050000 	 0.950000 	 -0.004755 
0.050000 	 0.960000 	 -0.005520 
0.050000 	 0.970000 	 -0.006347 
0.050000 	 0.980000 	 -0.007081 
0.050000 	 0.990000 	 -0.007283 
0.050000 	 1.000000 	 -0.005810 
0.050000 	 1.010000 	 0.000000 
0.060000 	 0.010000 	 0.000000 
0.060000 	 0.020000 	 0.000002 
0.060000 	 0.030000 	 0.000006 
0.060000 	 0.040000 	 0.000009 
0.060000 	 0.050000 	 0.000012 
0.060000 	 0.060000 	 0.000011 
0.060000 	 0.070000 	 0.000007 
0.060000 	 0.080000 	 -0.000001 
0.060000 	 0.090000 	 -0.000015 
0.060000 	 0.100000 	 -0.000034 
0.060000 	 0.110000 	 -0.000059 
0.060000 	 0.120000 	 -0.000091 
0.060000 	 0.130000 	 -0.000130 
0.060000 	 0.140000 	 -0.000175 
0.060000 	 0.150000 	 -0.000228 
0.060000 	 0.160000 	 -0.000288 
0.060000 	 0.170000 	 -0.000356 
0.060000 	 0.180000 	 -0.000432 
0.060000 	 0.190000 	 -0.000515 
0.060000 	 0.200000 	 -0.000605 
0.060000 	 0.210000 	 -0.000704 
0.060000 	 0.220000 	 -0.000809 
0.060000 	 0.230000 	 -0.000922 
0.060000 	 0.240000 	 -0.001041 
0.060000 	 0.250000 	 -0.001167 
0.060000 	 0.260000 	 -0.001298 
0.060000 	 0.270000 	 -0.001436 
0.060000 	 0.280000 	 -0.001578 
0.060000 	 0.290000 	 -0.001725 
0.060000 	 0.300000 	 -0.001875 
0.060000 	 0.310000 	 -0.002029 
0.060000 	 0.320000 	 -0.002185 
0.060000 	 0.330000 	 -0.002343 
0.060000 	 0.340000 	 -0.002502 
0.060000 	 0.350000 	 -0.002661 
0.060000 	 0.360000 	 -0.002819 
0.060000 	 0.370000 	 -0.002976 
0.060000 	 0.380000 	 -0.003131 
0.060000 	 0.390000 	 -0.003282 
0.060000 	 0.400000 	 -0.003430 
0.060000 	 0.410000 	 -0.003572 
0.060000 	 0.420000 	 -0.003710 
0.060000 	 0.430000 	 -0.003841 
0.060000 	 0.440000 	 -0.003965 
0.060000 	 0.450000 	 -0.004082 
0.060000 	 0.460000 	 -0.004191 
0.060000 	 0.470000 	 -0.004291 
0.060000 	 0.480000 	 -0.004382 
0.060000 	 0.490000 	 -0.004463 
0.060000 	 0.500000 	 -0.004535 
0.060000 	 0.510000 	 -0.004596 
0.060000 	 0.520000 	 -0.004647 
0.060000 	 0.530000 	 -0.004687 
0.060000 	 0.540000 	 -0.004717 
0.060000 	 0.550000 	 -0.004736 
0.060000 	 0.560000 	 -0.004744 
0.060000 	 0.570000 	 -0.004742 
0.060000 	 0.580000 	 -0.004730 
0.060000 	 0.590000 	 -0.004708 
0.060000 	 0.600000 	 -0.004676 
0.060000 	 0.610000 	 -0.004635 
0.060000 	 0.620000 	 -0.004586 
0.060000 	 0.630000 	 -0.004528 
0.060000 	 0.640000 	 -0.004463 
0.060000 	 0.650000 	 -0.004391 
0.060000 	 0.660000 	 -0.004312 
0.060000 	 0.670000 	 -0.004229 
0.060000 	 0.680000 	 -0.004140 
0.060000 	 0.690000 	 -0.004048 
0.060000 	 0.700000 	 -0.003953 
0.060000 	 0.710000 	 -0.003856 
0.060000 	 0.720000 	 -0.003758 
0.060000 	 0.730000 	 -0.003660 
0.060000 	 0.740000 	 -0.003563 
0.060000 	 0.750000 	 -0.003468 
0.060000 	 0.760000 	 -0.003376 
0.060000 	 0.770000 	 -0.003290 
0.060000 	 0.780000 	 -0.003209 
0.060000 	 0.790000 	 -0.003136 
0.060000 	 0.800000 	 -0.003073 
0.060000 	 0.810000 	 -0.003022 
0.060000 	 0.820000 	 -0.002984 
0.060000 	 0.830000 	 -0.002965 
0.060000 	 0.840000 	 -0.002965 
0.060000 	 0.850000 	 -0.002991 
0.060000 	 0.860000 	 -0.003048 
0.060000 	 0.870000 	 -0.003141 
0.060000 	 0.880000 	 -0.003279 
0.060000 	 0.890000 	 -0.003472 
0.060000 	 0.900000 	 -0.003730 
0.060000 	 0.910000 	 -0.004066 
0.060000 	 0.920000 	 -0.004495 
0.060000 	 0.930000 	 -0.005030 
0.060000 	 0.940000 	 -0.005681 
0.060000 	 0.950000 	 -0.006446 
0.060000 	 0.960000 	 -0.007298 
0.060000 	 0.970000 	 -0.008145 
0.060000 	 0.980000 	 -0.008757 
0.060000 	 0.990000 	 -0.008595 
0.060000 	 1.000000 	 -0.006452 
0.060000 	 1.010000 	 0.000000 
0.070000 	 0.010000 	 0.000000 
0.070000 	 0.020000 	 0.000002 
0.070000 	 0.030000 	 0.000006 
0.070000 	 0.040000 	 0.000010 
0.070000 	 0.050000 	 0.000011 
0.070000 	 0.060000 	 0.000008 
0.070000 	 0.070000 	 0.000000 
0.070000 	 0.080000 	 -0.000013 
0.070000 	 0.090000 	 -0.000034 
0.070000 	 0.100000 	 -0.000062 
0.070000 	 0.110000 	 -0.000099 
0.070000 	 0.120000 	 -0.000144 
0.070000 	 0.130000 	 -0.000199 
0.070000 	 0.140000 	 -0.000263 
0.070000 	 0.150000 	 -0.000337 
0.070000 	 0.160000 	 -0.000421 
0.070000 	 0.170000 	 -0.000516 
0.070000 	 0.180000 	 -0.000620 
0.070000 	 0.190000 	 -0.000735 
0.070000 	 0.200000 	 -0.000861 
0.070000 	 0.210000 	 -0.000996 
0.070000 	 0.220000 	 -0.001141 
0.070000 	 0.230000 	 -0.001295 
0.070000 	 0.240000 	 -0.001459 
0.070000 	 0.250000 	 -0.001631 
0.070000 	 0.260000 	 -0.001811 
0.070000 	 0.270000 	 -0.001998 
0.070000 	 0.280000 	 -0.002192 
0.070000 	 0.290000 	 -0.002393 
0.070000 	 0.300000 	 -0.002598 
0.070000 	 0.310000 	 -0.002808 
0.070000 	 0.320000 	 -0.003020 
0.070000 	 0.330000 	 -0.003236 
0.070000 	 0.340000 	 -0.003452 
0.070000 	 0.350000 	 -0.003669 
0.070000 	 0.360000 	 -0.003885 
0.070000 	 0.370000 	 -0.004099 
0.070000 	 0.380000 	 -0.004311 
0.070000 	 0.390000 	 -0.004518 
0.070000 	 0.400000 	 -0.004720 
0.070000 	 0.410000 	 -0.004917 
0.070000 	 0.420000 	 -0.005106 
0.070000 	 0.430000 	 -0.005287 
0.070000 	 0.440000 	 -0.005459 
0.070000 	 0.450000 	 -0.005621 
0.070000 	 0.460000 	 -0.005773 
0.070000 	 0.470000 	 -0.005913 
0.070000 	 0.480000 	 -0.006041 
0.070000 	 0.490000 	 -0.006157 
0.070000 	 0.500000 	 -0.006259 
0.070000 	 0.510000 	 -0.006348 
0.070000 	 0.520000 	 -0.006423 
0.070000 	 0.530000 	 -0.006484 
0.070000 	 0.540000 	 -0.006531 
0.070000 	 0.550000 	 -0.006563 
0.070000 	 0.560000 	 -0.006581 
0.070000 	 0.570000 	 -0.006586 
0.070000 	 0.580000 	 -0.006576 
0.070000 	 0.590000 	 -0.006552 
0.070000 	 0.600000 	 -0.006516 
0.070000 	 0.610000 	 -0.006467 
0.070000 	 0.620000 	 -0.006406 
0.070000 	 0.630000 	 -0.006333 
0.070000 	 0.640000 	 -0.006250 
0.070000 	 0.650000 	 -0.006158 
0.070000 	 0.660000 	 -0.006056 
0.070000 	 0.670000 	 -0.005946 
0.070000 	 0.680000 	 -0.005830 
0.070000 	 0.690000 	 -0.005708 
0.070000 	 0.700000 	 -0.005581 
0.070000 	 0.710000 	 -0.005451 
0.070000 	 0.720000 	 -0.005318 
0.070000 	 0.730000 	 -0.005186 
0.070000 	 0.740000 	 -0.005053 
0.070000 	 0.750000 	 -0.004923 
0.070000 	 0.760000 	 -0.004797 
0.070000 	 0.770000 	 -0.004677 
0.070000 	 0.780000 	 -0.004564 
0.070000 	 0.790000 	 -0.004462 
0.070000 	 0.800000 	 -0.004371 
0.070000 	 0.810000 	 -0.004295 
0.070000 	 0.820000 	 -0.004238 
0.070000 	 0.830000 	 -0.004202 
0.070000 	 0.840000 	 -0.004193 
0.070000 	 0.850000 	 -0.004215 
0.070000 	 0.860000 	 -0.004275 
0.070000 	 0.870000 	 -0.004381 
0.070000 	 0.880000 	 -0.004540 
0.070000 	 0.890000 	 -0.004765 
0.070000 	 0.900000 	 -0.005067 
0.070000 	 0.910000 	 -0.005458 
0.070000 	 0.920000 	 -0.005952 
0.070000 	 0.930000 	 -0.006560 
0.070000 	 0.940000 	 -0.007284 
0.070000 	 0.950000 	 -0.008110 
0.070000 	 0.960000 	 -0.008986 
0.070000 	 0.970000 	 -0.009780 
0.070000 	 0.980000 	 -0.010202 
0.070000 	 0.990000 	 -0.009646 
0.070000 	 1.000000 	 -0.006914 
0.070000 	 1.010000 	 0.000000 
0.080000 	 0.010000 	 0.000000 
0.080000 	 0.020000 	 0.000002 
0.080000 	 0.030000 	 0.000006 
0.080000 	 0.040000 	 0.000009 
0.080000 	 0.050000 	 0.000008 
0.080000 	 0.060000 	 0.000002 
0.080000 	 0.070000 	 -0.000011 
0.080000 	 0.080000 	 -0.000031 
0.080000 	 0.090000 	 -0.000061 
0.080000 	 0.100000 	 -0.000100 
0.080000 	 0.110000 	 -0.000150 
0.080000 	 0.120000 	 -0.000212 
0.080000 	 0.130000 	 -0.000285 
0.080000 	 0.140000 	 -0.000370 
0.080000 	 0.150000 	 -0.000468 
0.080000 	 0.160000 	 -0.000579 
0.080000 	 0.170000 	 -0.000704 
0.080000 	 0.180000 	 -0.000841 
0.080000 	 0.190000 	 -0.000991 
0.080000 	 0.200000 	 -0.001155 
0.080000 	 0.210000 	 -0.001331 
0.080000 	 0.220000 	 -0.001519 
0.080000 	 0.230000 	 -0.001720 
0.080000 	 0.240000 	 -0.001932 
0.080000 	 0.250000 	 -0.002155 
0.080000 	 0.260000 	 -0.002388 
0.080000 	 0.270000 	 -0.002630 
0.080000 	 0.280000 	 -0.002881 
0.080000 	 0.290000 	 -0.003140 
0.080000 	 0.300000 	 -0.003405 
0.080000 	 0.310000 	 -0.003676 
0.080000 	 0.320000 	 -0.003950 
0.080000 	 0.330000 	 -0.004228 
0.080000 	 0.340000 	 -0.004508 
0.080000 	 0.350000 	 -0.004788 
0.080000 	 0.360000 	 -0.005067 
0.080000 	 0.370000 	 -0.005344 
0.080000 	 0.380000 	 -0.005617 
0.080000 	 0.390000 	 -0.005886 
0.080000 	 0.400000 	 -0.006148 
0.080000 	 0.410000 	 -0.006403 
0.080000 	 0.420000 	 -0.006649 
0.080000 	 0.430000 	 -0.006885 
0.080000 	 0.440000 	 -0.007110 
0.080000 	 0.450000 	 -0.007323 
0.080000 	 0.460000 	 -0.007523 
0.080000 	 0.470000 	 -0.007708 
0.080000 	 0.480000 	 -0.007878 
0.080000 	 0.490000 	 -0.008033 
0.080000 	 0.500000 	 -0.008171 
0.080000 	 0.510000 	 -0.008292 
0.080000 	 0.520000 	 -0.008396 
0.080000 	 0.530000 	 -0.008482 
0.080000 	 0.540000 	 -0.008550 
0.080000 	 0.550000 	 -0.008600 
0.080000 	 0.560000 	 -0.008631 
0.080000 	 0.570000 	 -0.008645 
0.080000 	 0.580000 	 -0.008641 
0.080000 	 0.590000 	 -0.008619 
0.080000 	 0.600000 	 -0.008581 
0.080000 	 0.610000 	 -0.008526 
0.080000 	 0.620000 	 -0.008455 
0.080000 	 0.630000 	 -0.008369 
0.080000 	 0.640000 	 -0.008270 
0.080000 	 0.650000 	 -0.008157 
0.080000 	 0.660000 	 -0.008032 
0.080000 	 0.670000 	 -0.007897 
0.080000 	 0.680000 	 -0.007752 
0.080000 	 0.690000 	 -0.007599 
0.080000 	 0.700000 	 -0.007439 
0.080000 	 0.710000 	 -0.007275 
0.080000 	 0.720000 	 -0.007106 
0.080000 	 0.730000 	 -0.006936 
0.080000 	 0.740000 	 -0.006766 
0.080000 	 0.750000 	 -0.006598 
0.080000 	 0.760000 	 -0.006434 
0.080000 	 0.770000 	 -0.006276 
0.080000 	 0.780000 	 -0.006127 
0.080000 	 0.790000 	 -0.005990 
0.080000 	 0.800000 	 -0.005867 
0.080000 	 0.810000 	 -0.005762 
0.080000 	 0.820000 	 -0.005678 
0.080000 	 0.830000 	 -0.005621 
0.080000 	 0.840000 	 -0.005594 
0.080000 	 0.850000 	 -0.005605 
0.080000 	 0.860000 	 -0.005660 
0.080000 	 0.870000 	 -0.005768 
0.080000 	 0.880000 	 -0.005938 
0.080000 	 0.890000 	 -0.006180 
0.080000 	 0.900000 	 -0.006508 
0.080000 	 0.910000 	 -0.006933 
0.080000 	 0.920000 	 -0.007467 
0.080000 	 0.930000 	 -0.008115 
0.080000 	 0.940000 	 -0.008874 
0.080000 	 0.950000 	 -0.009714 
0.080000 	 0.960000 	 -0.010561 
0.080000 	 0.970000 	 -0.011249 
0.080000 	 0.980000 	 -0.011442 
0.080000 	 0.990000 	 -0.010495 
0.080000 	 1.000000 	 -0.007254 
0.080000 	 1.010000 	 0.000000 
0.090000 	 0.010000 	 0.000000 
0.090000 	 0.020000 	 0.000002 
0.090000 	 0.030000 	 0.000005 
0.090000 	 0.040000 	 0.000006 
0.090000 	 0.050000 	 0.000002 
0.090000 	 0.060000 	 -0.000008 
0.090000 	 0.070000 	 -0.000027 
0.090000 	 0.080000 	 -0.000055 
0.090000 	 0.090000 	 -0.000095 
0.090000 	 0.100000 	 -0.000148 
0.090000 	 0.110000 	 -0.000213 
0.090000 	 0.120000 	 -0.000292 
0.090000 	 0.130000 	 -0.000387 
0.090000 	 0.140000 	 -0.000496 
0.090000 	 0.150000 	 -0.000621 
0.090000 	 0.160000 	 -0.000762 
0.090000 	 0.170000 	 -0.000918 
0.090000 	 0.180000 	 -0.001091 
0.090000 	 0.190000 	 -0.001280 
0.090000 	 0.200000 	 -0.001485 
0.090000 	 0.210000 	 -0.001706 
0.090000 	 0.220000 	 -0.001941 
0.090000 	 0.230000 	 -0.002192 
0.090000 	 0.240000 	 -0.002456 
0.090000 	 0.250000 	 -0.002734 
0.090000 	 0.260000 	 -0.003024 
0.090000 	 0.270000 	 -0.003325 
0.090000 	 0.280000 	 -0.003637 
0.090000 	 0.290000 	 -0.003958 
0.090000 	 0.300000 	 -0.004287 
0.090000 	 0.310000 	 -0.004623 
0.090000 	 0.320000 	 -0.004964 
0.090000 	 0.330000 	 -0.005308 
0.090000 	 0.340000 	 -0.005655 
0.090000 	 0.350000 	 -0.006003 
0.090000 	 0.360000 	 -0.006349 
0.090000 	 0.370000 	 -0.006693 
0.090000 	 0.380000 	 -0.007033 
0.090000 	 0.390000 	 -0.007367 
0.090000 	 0.400000 	 -0.007694 
0.090000 	 0.410000 	 -0.008012 
0.090000 	 0.420000 	 -0.008319 
0.090000 	 0.430000 	 -0.008615 
0.090000 	 0.440000 	 -0.008897 
0.090000 	 0.450000 	 -0.009164 
0.090000 	 0.460000 	 -0.009416 
0.090000 	 0.470000 	 -0.009651 
0.090000 	 0.480000 	 -0.009868 
0.090000 	 0.490000 	 -0.010066 
0.090000 	 0.500000 	 -0.010244 
0.090000 	 0.510000 	 -0.010401 
0.090000 	 0.520000 	 -0.010537 
0.090000 	 0.530000 	 -0.010652 
0.090000 	 0.540000 	 -0.010745 
0.090000 	 0.550000 	 -0.010816 
0.090000 	 0.560000 	 -0.010864 
0.090000 	 0.570000 	 -0.010891 
0.090000 	 0.580000 	 -0.010896 
0.090000 	 0.590000 	 -0.010879 
0.090000 	 0.600000 	 -0.010841 
0.090000 	 0.610000 	 -0.010783 
0.090000 	 0.620000 	 -0.010705 
0.090000 	 0.630000 	 -0.010608 
0.090000 	 0.640000 	 -0.010494 
0.090000 	 0.650000 	 -0.010363 
0.090000 	 0.660000 	 -0.010216 
0.090000 	 0.670000 	 -0.010056 
0.090000 	 0.680000 	 -0.009883 
0.090000 	 0.690000 	 -0.009699 
0.090000 	 0.700000 	 -0.009506 
0.090000 	 0.710000 	 -0.009306 
0.090000 	 0.720000 	 -0.009100 
0.090000 	 0.730000 	 -0.008892 
0.090000 	 0.740000 	 -0.008682 
0.090000 	 0.750000 	 -0.008473 
0.090000 	 0.760000 	 -0.008268 
0.090000 	 0.770000 	 -0.008070 
0.090000 	 0.780000 	 -0.007881 
0.090000 	 0.790000 	 -0.007705 
0.090000 	 0.800000 	 -0.007545 
0.090000 	 0.810000 	 -0.007405 
0.090000 	 0.820000 	 -0.007290 
0.090000 	 0.830000 	 -0.007204 
0.090000 	 0.840000 	 -0.007153 
0.090000 	 0.850000 	 -0.007144 
0.090000 	 0.860000 	 -0.007184 
0.090000 	 0.870000 	 -0.007283 
0.090000 	 0.880000 	 -0.007449 
0.090000 	 0.890000 	 -0.007694 
0.090000 	 0.900000 	 -0.008030 
0.090000 	 0.910000 	 -0.008466 
0.090000 	 0.920000 	 -0.009013 
0.090000 	 0.930000 	 -0.009671 
0.090000 	 0.940000 	 -0.010429 
0.090000 	 0.950000 	 -0.011244 
0.090000 	 0.960000 	 -0.012022 
0.090000 	 0.970000 	 -0.012566 
0.090000 	 0.980000 	 -0.012509 
0.090000 	 0.990000 	 -0.011188 
0.090000 	 1.000000 	 -0.007512 
0.090000 	 1.010000 	 0.000000 
0.100000 	 0.010000 	 0.000000 
0.100000 	 0.020000 	 0.000002 
0.100000 	 0.030000 	 0.000004 