VARIABLES = "X", "Y", "W"
ZONE T = "BLOCK1", I = 101, J = 101, F = POINT

0.010000 	 0.010000 	 -0.000000 
0.010000 	 0.020000 	 -0.002793 
0.010000 	 0.030000 	 -0.011131 
0.010000 	 0.040000 	 -0.021800 
0.010000 	 0.050000 	 -0.032051 
0.010000 	 0.060000 	 -0.039945 
0.010000 	 0.070000 	 -0.044146 
0.010000 	 0.080000 	 -0.043694 
0.010000 	 0.090000 	 -0.037867 
0.010000 	 0.100000 	 -0.026089 
0.010000 	 0.110000 	 -0.007881 
0.010000 	 0.120000 	 0.017169 
0.010000 	 0.130000 	 0.049420 
0.010000 	 0.140000 	 0.089184 
0.010000 	 0.150000 	 0.136729 
0.010000 	 0.160000 	 0.192278 
0.010000 	 0.170000 	 0.256004 
0.010000 	 0.180000 	 0.328025 
0.010000 	 0.190000 	 0.408403 
0.010000 	 0.200000 	 0.497133 
0.010000 	 0.210000 	 0.594147 
0.010000 	 0.220000 	 0.699300 
0.010000 	 0.230000 	 0.812377 
0.010000 	 0.240000 	 0.933081 
0.010000 	 0.250000 	 1.061040 
0.010000 	 0.260000 	 1.195802 
0.010000 	 0.270000 	 1.336838 
0.010000 	 0.280000 	 1.483542 
0.010000 	 0.290000 	 1.635237 
0.010000 	 0.300000 	 1.791179 
0.010000 	 0.310000 	 1.950561 
0.010000 	 0.320000 	 2.112522 
0.010000 	 0.330000 	 2.276155 
0.010000 	 0.340000 	 2.440509 
0.010000 	 0.350000 	 2.604611 
0.010000 	 0.360000 	 2.767464 
0.010000 	 0.370000 	 2.928065 
0.010000 	 0.380000 	 3.085412 
0.010000 	 0.390000 	 3.238515 
0.010000 	 0.400000 	 3.386410 
0.010000 	 0.410000 	 3.528163 
0.010000 	 0.420000 	 3.662889 
0.010000 	 0.430000 	 3.789753 
0.010000 	 0.440000 	 3.907984 
0.010000 	 0.450000 	 4.016882 
0.010000 	 0.460000 	 4.115820 
0.010000 	 0.470000 	 4.204258 
0.010000 	 0.480000 	 4.281743 
0.010000 	 0.490000 	 4.347913 
0.010000 	 0.500000 	 4.402499 
0.010000 	 0.510000 	 4.445331 
0.010000 	 0.520000 	 4.476331 
0.010000 	 0.530000 	 4.495519 
0.010000 	 0.540000 	 4.503005 
0.010000 	 0.550000 	 4.498991 
0.010000 	 0.560000 	 4.483769 
0.010000 	 0.570000 	 4.457710 
0.010000 	 0.580000 	 4.421265 
0.010000 	 0.590000 	 4.374956 
0.010000 	 0.600000 	 4.319372 
0.010000 	 0.610000 	 4.255165 
0.010000 	 0.620000 	 4.183037 
0.010000 	 0.630000 	 4.103743 
0.010000 	 0.640000 	 4.018072 
0.010000 	 0.650000 	 3.926858 
0.010000 	 0.660000 	 3.830959 
0.010000 	 0.670000 	 3.731263 
0.010000 	 0.680000 	 3.628677 
0.010000 	 0.690000 	 3.524131 
0.010000 	 0.700000 	 3.418571 
0.010000 	 0.710000 	 3.312961 
0.010000 	 0.720000 	 3.208291 
0.010000 	 0.730000 	 3.105576 
0.010000 	 0.740000 	 3.005871 
0.010000 	 0.750000 	 2.910288 
0.010000 	 0.760000 	 2.820013 
0.010000 	 0.770000 	 2.736341 
0.010000 	 0.780000 	 2.660723 
0.010000 	 0.790000 	 2.594823 
0.010000 	 0.800000 	 2.540608 
0.010000 	 0.810000 	 2.500460 
0.010000 	 0.820000 	 2.477341 
0.010000 	 0.830000 	 2.475016 
0.010000 	 0.840000 	 2.498346 
0.010000 	 0.850000 	 2.553712 
0.010000 	 0.860000 	 2.649572 
0.010000 	 0.870000 	 2.797236 
0.010000 	 0.880000 	 3.011914 
0.010000 	 0.890000 	 3.314183 
0.010000 	 0.900000 	 3.732029 
0.010000 	 0.910000 	 4.303835 
0.010000 	 0.920000 	 5.082964 
0.010000 	 0.930000 	 6.145280 
0.010000 	 0.940000 	 7.602387 
0.010000 	 0.950000 	 9.626060 
0.010000 	 0.960000 	 12.492764 
0.010000 	 0.970000 	 16.652266 
0.010000 	 0.980000 	 22.751663 
0.010000 	 0.990000 	 31.066425 
0.010000 	 1.000000 	 36.907562 
0.010000 	 1.010000 	 -200.000000 
0.020000 	 0.010000 	 -0.002793 
0.020000 	 0.020000 	 -0.005512 
0.020000 	 0.030000 	 -0.008227 
0.020000 	 0.040000 	 -0.011346 
0.020000 	 0.050000 	 -0.013875 
0.020000 	 0.060000 	 -0.014636 
0.020000 	 0.070000 	 -0.012595 
0.020000 	 0.080000 	 -0.006914 
0.020000 	 0.090000 	 0.003080 
0.020000 	 0.100000 	 0.017929 
0.020000 	 0.110000 	 0.038079 
0.020000 	 0.120000 	 0.063897 
0.020000 	 0.130000 	 0.095692 
0.020000 	 0.140000 	 0.133718 
0.020000 	 0.150000 	 0.178180 
0.020000 	 0.160000 	 0.229237 
0.020000 	 0.170000 	 0.287000 
0.020000 	 0.180000 	 0.351535 
0.020000 	 0.190000 	 0.422856 
0.020000 	 0.200000 	 0.500927 
0.020000 	 0.210000 	 0.585657 
0.020000 	 0.220000 	 0.676905 
0.020000 	 0.230000 	 0.774470 
0.020000 	 0.240000 	 0.878097 
0.020000 	 0.250000 	 0.987475 
0.020000 	 0.260000 	 1.102236 
0.020000 	 0.270000 	 1.221960 
0.020000 	 0.280000 	 1.346173 
0.020000 	 0.290000 	 1.474352 
0.020000 	 0.300000 	 1.605927 
0.020000 	 0.310000 	 1.740288 
0.020000 	 0.320000 	 1.876786 
0.020000 	 0.330000 	 2.014740 
0.020000 	 0.340000 	 2.153439 
0.020000 	 0.350000 	 2.292156 
0.020000 	 0.360000 	 2.430144 
0.020000 	 0.370000 	 2.566653 
0.020000 	 0.380000 	 2.700929 
0.020000 	 0.390000 	 2.832222 
0.020000 	 0.400000 	 2.959798 
0.020000 	 0.410000 	 3.082940 
0.020000 	 0.420000 	 3.200956 
0.020000 	 0.430000 	 3.313188 
0.020000 	 0.440000 	 3.419014 
0.020000 	 0.450000 	 3.517857 
0.020000 	 0.460000 	 3.609189 
0.020000 	 0.470000 	 3.692535 
0.020000 	 0.480000 	 3.767477 
0.020000 	 0.490000 	 3.833659 
0.020000 	 0.500000 	 3.890790 
0.020000 	 0.510000 	 3.938642 
0.020000 	 0.520000 	 3.977059 
0.020000 	 0.530000 	 4.005951 
0.020000 	 0.540000 	 4.025302 
0.020000 	 0.550000 	 4.035159 
0.020000 	 0.560000 	 4.035641 
0.020000 	 0.570000 	 4.026935 
0.020000 	 0.580000 	 4.009289 
0.020000 	 0.590000 	 3.983020 
0.020000 	 0.600000 	 3.948500 
0.020000 	 0.610000 	 3.906161 
0.020000 	 0.620000 	 3.856487 
0.020000 	 0.630000 	 3.800012 
0.020000 	 0.640000 	 3.737320 
0.020000 	 0.650000 	 3.669036 
0.020000 	 0.660000 	 3.595824 
0.020000 	 0.670000 	 3.518388 
0.020000 	 0.680000 	 3.437463 
0.020000 	 0.690000 	 3.353819 
0.020000 	 0.700000 	 3.268259 
0.020000 	 0.710000 	 3.181619 
0.020000 	 0.720000 	 3.094769 
0.020000 	 0.730000 	 3.008623 
0.020000 	 0.740000 	 2.924144 
0.020000 	 0.750000 	 2.842356 
0.020000 	 0.760000 	 2.764367 
0.020000 	 0.770000 	 2.691389 
0.020000 	 0.780000 	 2.624776 
0.020000 	 0.790000 	 2.566070 
0.020000 	 0.800000 	 2.517066 
0.020000 	 0.810000 	 2.479894 
0.020000 	 0.820000 	 2.457129 
0.020000 	 0.830000 	 2.451934 
0.020000 	 0.840000 	 2.468246 
0.020000 	 0.850000 	 2.511007 
0.020000 	 0.860000 	 2.586457 
0.020000 	 0.870000 	 2.702491 
0.020000 	 0.880000 	 2.869085 
0.020000 	 0.890000 	 3.098785 
0.020000 	 0.900000 	 3.407246 
0.020000 	 0.910000 	 3.813747 
0.020000 	 0.920000 	 4.341511 
0.020000 	 0.930000 	 5.017296 
0.020000 	 0.940000 	 5.868452 
0.020000 	 0.950000 	 6.911550 
0.020000 	 0.960000 	 8.112061 
0.020000 	 0.970000 	 9.241730 
0.020000 	 0.980000 	 9.351248 
0.020000 	 0.990000 	 4.613957 
0.020000 	 1.000000 	 -22.251635 
0.020000 	 1.010000 	 -163.092438 
0.030000 	 0.010000 	 -0.011065 
0.030000 	 0.020000 	 -0.008239 
0.030000 	 0.030000 	 -0.004919 
0.030000 	 0.040000 	 -0.001483 
0.030000 	 0.050000 	 0.002527 
0.030000 	 0.060000 	 0.007861 
0.030000 	 0.070000 	 0.015296 
0.030000 	 0.080000 	 0.025525 
0.030000 	 0.090000 	 0.039135 
0.030000 	 0.100000 	 0.056608 
0.030000 	 0.110000 	 0.078338 
0.030000 	 0.120000 	 0.104643 
0.030000 	 0.130000 	 0.135777 
0.030000 	 0.140000 	 0.171937 
0.030000 	 0.150000 	 0.213272 
0.030000 	 0.160000 	 0.259883 
0.030000 	 0.170000 	 0.311831 
0.030000 	 0.180000 	 0.369133 
0.030000 	 0.190000 	 0.431767 
0.030000 	 0.200000 	 0.499670 
0.030000 	 0.210000 	 0.572741 
0.030000 	 0.220000 	 0.650838 
0.030000 	 0.230000 	 0.733783 
0.030000 	 0.240000 	 0.821359 
0.030000 	 0.250000 	 0.913313 
0.030000 	 0.260000 	 1.009355 
0.030000 	 0.270000 	 1.109164 
0.030000 	 0.280000 	 1.212384 
0.030000 	 0.290000 	 1.318630 
0.030000 	 0.300000 	 1.427489 
0.030000 	 0.310000 	 1.538523 
0.030000 	 0.320000 	 1.651271 
0.030000 	 0.330000 	 1.765252 
0.030000 	 0.340000 	 1.879969 
0.030000 	 0.350000 	 1.994910 
0.030000 	 0.360000 	 2.109554 
0.030000 	 0.370000 	 2.223373 
0.030000 	 0.380000 	 2.335835 
0.030000 	 0.390000 	 2.446408 
0.030000 	 0.400000 	 2.554565 
0.030000 	 0.410000 	 2.659786 
0.030000 	 0.420000 	 2.761562 
0.030000 	 0.430000 	 2.859397 
0.030000 	 0.440000 	 2.952816 
0.030000 	 0.450000 	 3.041364 
0.030000 	 0.460000 	 3.124611 
0.030000 	 0.470000 	 3.202157 
0.030000 	 0.480000 	 3.273632 
0.030000 	 0.490000 	 3.338700 
0.030000 	 0.500000 	 3.397065 
0.030000 	 0.510000 	 3.448469 
0.030000 	 0.520000 	 3.492698 
0.030000 	 0.530000 	 3.529582 
0.030000 	 0.540000 	 3.558997 
0.030000 	 0.550000 	 3.580868 
0.030000 	 0.560000 	 3.595170 
0.030000 	 0.570000 	 3.601926 
0.030000 	 0.580000 	 3.601214 
0.030000 	 0.590000 	 3.593159 
0.030000 	 0.600000 	 3.577941 
0.030000 	 0.610000 	 3.555790 
0.030000 	 0.620000 	 3.526987 
0.030000 	 0.630000 	 3.491860 
0.030000 	 0.640000 	 3.450788 
0.030000 	 0.650000 	 3.404197 
0.030000 	 0.660000 	 3.352560 
0.030000 	 0.670000 	 3.296395 
0.030000 	 0.680000 	 3.236261 
0.030000 	 0.690000 	 3.172763 
0.030000 	 0.700000 	 3.106552 
0.030000 	 0.710000 	 3.038320 
0.030000 	 0.720000 	 2.968806 
0.030000 	 0.730000 	 2.898804 
0.030000 	 0.740000 	 2.829161 
0.030000 	 0.750000 	 2.760795 
0.030000 	 0.760000 	 2.694701 
0.030000 	 0.770000 	 2.631975 
0.030000 	 0.780000 	 2.573832 
0.030000 	 0.790000 	 2.521642 
0.030000 	 0.800000 	 2.476969 
0.030000 	 0.810000 	 2.441616 
0.030000 	 0.820000 	 2.417690 
0.030000 	 0.830000 	 2.407664 
0.030000 	 0.840000 	 2.414457 
0.030000 	 0.850000 	 2.441500 
0.030000 	 0.860000 	 2.492802 
0.030000 	 0.870000 	 2.572956 
0.030000 	 0.880000 	 2.687069 
0.030000 	 0.890000 	 2.840516 
0.030000 	 0.900000 	 3.038365 
0.030000 	 0.910000 	 3.284195 
0.030000 	 0.920000 	 3.577688 
0.030000 	 0.930000 	 3.909611 
0.030000 	 0.940000 	 4.250793 
0.030000 	 0.950000 	 4.525993 
0.030000 	 0.960000 	 4.546493 
0.030000 	 0.970000 	 3.818550 
0.030000 	 0.980000 	 0.935593 
0.030000 	 0.990000 	 -8.571520 
0.030000 	 1.000000 	 -39.771412 
0.030000 	 1.010000 	 -127.939453 
0.040000 	 0.010000 	 -0.021561 
0.040000 	 0.020000 	 -0.011463 
0.040000 	 0.030000 	 -0.001734 
0.040000 	 0.040000 	 0.007805 
0.040000 	 0.050000 	 0.017600 
0.040000 	 0.060000 	 0.028249 
0.040000 	 0.070000 	 0.040374 
0.040000 	 0.080000 	 0.054553 
0.040000 	 0.090000 	 0.071289 
0.040000 	 0.100000 	 0.090996 
0.040000 	 0.110000 	 0.114011 
0.040000 	 0.120000 	 0.140601 
0.040000 	 0.130000 	 0.170965 
0.040000 	 0.140000 	 0.205251 
0.040000 	 0.150000 	 0.243558 
0.040000 	 0.160000 	 0.285940 
0.040000 	 0.170000 	 0.332415 
0.040000 	 0.180000 	 0.382964 
0.040000 	 0.190000 	 0.437538 
0.040000 	 0.200000 	 0.496057 
0.040000 	 0.210000 	 0.558411 
0.040000 	 0.220000 	 0.624469 
0.040000 	 0.230000 	 0.694071 
0.040000 	 0.240000 	 0.767039 
0.040000 	 0.250000 	 0.843170 
0.040000 	 0.260000 	 0.922246 
0.040000 	 0.270000 	 1.004029 
0.040000 	 0.280000 	 1.088263 
0.040000 	 0.290000 	 1.174682 
0.040000 	 0.300000 	 1.263001 
0.040000 	 0.310000 	 1.352929 
0.040000 	 0.320000 	 1.444159 
0.040000 	 0.330000 	 1.536378 
0.040000 	 0.340000 	 1.629263 
0.040000 	 0.350000 	 1.722485 
0.040000 	 0.360000 	 1.815709 
0.040000 	 0.370000 	 1.908594 
0.040000 	 0.380000 	 2.000796 
0.040000 	 0.390000 	 2.091969 
0.040000 	 0.400000 	 2.181764 
0.040000 	 0.410000 	 2.269835 
0.040000 	 0.420000 	 2.355833 
0.040000 	 0.430000 	 2.439415 
0.040000 	 0.440000 	 2.520241 
0.040000 	 0.450000 	 2.597975 
0.040000 	 0.460000 	 2.672290 
0.040000 	 0.470000 	 2.742869 
0.040000 	 0.480000 	 2.809405 
0.040000 	 0.490000 	 2.871606 
0.040000 	 0.500000 	 2.929194 
0.040000 	 0.510000 	 2.981910 
0.040000 	 0.520000 	 3.029516 
0.040000 	 0.530000 	 3.071797 
0.040000 	 0.540000 	 3.108565 
0.040000 	 0.550000 	 3.139657 
0.040000 	 0.560000 	 3.164942 
0.040000 	 0.570000 	 3.184325 
0.040000 	 0.580000 	 3.197742 
0.040000 	 0.590000 	 3.205171 
0.040000 	 0.600000 	 3.206627 
0.040000 	 0.610000 	 3.202166 
0.040000 	 0.620000 	 3.191891 
0.040000 	 0.630000 	 3.175946 
0.040000 	 0.640000 	 3.154523 
0.040000 	 0.650000 	 3.127859 
0.040000 	 0.660000 	 3.096241 
0.040000 	 0.670000 	 3.060003 
0.040000 	 0.680000 	 3.019530 
0.040000 	 0.690000 	 2.975255 
0.040000 	 0.700000 	 2.927663 
0.040000 	 0.710000 	 2.877293 
0.040000 	 0.720000 	 2.824737 
0.040000 	 0.730000 	 2.770647 
0.040000 	 0.740000 	 2.715739 
0.040000 	 0.750000 	 2.660794 
0.040000 	 0.760000 	 2.606675 
0.040000 	 0.770000 	 2.554335 
0.040000 	 0.780000 	 2.504826 
0.040000 	 0.790000 	 2.459324 
0.040000 	 0.800000 	 2.419142 
0.040000 	 0.810000 	 2.385751 
0.040000 	 0.820000 	 2.360801 
0.040000 	 0.830000 	 2.346125 
0.040000 	 0.840000 	 2.343733 
0.040000 	 0.850000 	 2.355769 
0.040000 	 0.860000 	 2.384408 
0.040000 	 0.870000 	 2.431644 
0.040000 	 0.880000 	 2.498906 
0.040000 	 0.890000 	 2.586379 
0.040000 	 0.900000 	 2.691821 
0.040000 	 0.910000 	 2.808492 
0.040000 	 0.920000 	 2.921423 
0.040000 	 0.930000 	 3.000326 
0.040000 	 0.940000 	 2.985166 
0.040000 	 0.950000 	 2.754139 
0.040000 	 0.960000 	 2.045470 
0.040000 	 0.970000 	 0.246532 
0.040000 	 0.980000 	 -4.223929 
0.040000 	 0.990000 	 -15.731779 
0.040000 	 1.000000 	 -45.250565 
0.040000 	 1.010000 	 -102.042564 
0.050000 	 0.010000 	 -0.031627 
0.050000 	 0.020000 	 -0.014328 
0.050000 	 0.030000 	 0.001635 
0.050000 	 0.040000 	 0.016832 
0.050000 	 0.050000 	 0.031816 
0.050000 	 0.060000 	 0.047148 
0.050000 	 0.070000 	 0.063374 
0.050000 	 0.080000 	 0.080992 
0.050000 	 0.090000 	 0.100431 
0.050000 	 0.100000 	 0.122044 
0.050000 	 0.110000 	 0.146115 
0.050000 	 0.120000 	 0.172857 
0.050000 	 0.130000 	 0.202427 
0.050000 	 0.140000 	 0.234926 
0.050000 	 0.150000 	 0.270412 
0.050000 	 0.160000 	 0.308904 
0.050000 	 0.170000 	 0.350386 
0.050000 	 0.180000 	 0.394815 
0.050000 	 0.190000 	 0.442121 
0.050000 	 0.200000 	 0.492216 
0.050000 	 0.210000 	 0.544990 
0.050000 	 0.220000 	 0.600322 
0.050000 	 0.230000 	 0.658075 
0.050000 	 0.240000 	 0.718103 
0.050000 	 0.250000 	 0.780250 
0.050000 	 0.260000 	 0.844356 
0.050000 	 0.270000 	 0.910253 
0.050000 	 0.280000 	 0.977768 
0.050000 	 0.290000 	 1.046726 
0.050000 	 0.300000 	 1.116951 
0.050000 	 0.310000 	 1.188261 
0.050000 	 0.320000 	 1.260475 
0.050000 	 0.330000 	 1.333412 
0.050000 	 0.340000 	 1.406885 
0.050000 	 0.350000 	 1.480708 
0.050000 	 0.360000 	 1.554695 
0.050000 	 0.370000 	 1.628654 
0.050000 	 0.380000 	 1.702393 
0.050000 	 0.390000 	 1.775714 
0.050000 	 0.400000 	 1.848418 
0.050000 	 0.410000 	 1.920301 
0.050000 	 0.420000 	 1.991155 
0.050000 	 0.430000 	 2.060768 
0.050000 	 0.440000 	 2.128922 
0.050000 	 0.450000 	 2.195395 
0.050000 	 0.460000 	 2.259962 
0.050000 	 0.470000 	 2.322394 
0.050000 	 0.480000 	 2.382459 
0.050000 	 0.490000 	 2.439924 
0.050000 	 0.500000 	 2.494555 
0.050000 	 0.510000 	 2.546120 
0.050000 	 0.520000 	 2.594390 
0.050000 	 0.530000 	 2.639144 
0.050000 	 0.540000 	 2.680165 
0.050000 	 0.550000 	 2.717249 
0.050000 	 0.560000 	 2.750204 
0.050000 	 0.570000 	 2.778855 
0.050000 	 0.580000 	 2.803046 
0.050000 	 0.590000 	 2.822647 
0.050000 	 0.600000 	 2.837549 
0.050000 	 0.610000 	 2.847675 
0.050000 	 0.620000 	 2.852980 
0.050000 	 0.630000 	 2.853455 
0.050000 	 0.640000 	 2.849128 
0.050000 	 0.650000 	 2.840071 
0.050000 	 0.660000 	 2.826398 
0.050000 	 0.670000 	 2.808272 
0.050000 	 0.680000 	 2.785904 
0.050000 	 0.690000 	 2.759557 
0.050000 	 0.700000 	 2.729549 
0.050000 	 0.710000 	 2.696253 
0.050000 	 0.720000 	 2.660102 
0.050000 	 0.730000 	 2.621595 
0.050000 	 0.740000 	 2.581291 
0.050000 	 0.750000 	 2.539825 
0.050000 	 0.760000 	 2.497905 
0.050000 	 0.770000 	 2.456322 
0.050000 	 0.780000 	 2.415955 
0.050000 	 0.790000 	 2.377777 
0.050000 	 0.800000 	 2.342859 
0.050000 	 0.810000 	 2.312365 
0.050000 	 0.820000 	 2.287549 
0.050000 	 0.830000 	 2.269716 
0.050000 	 0.840000 	 2.260165 
0.050000 	 0.850000 	 2.260075 
0.050000 	 0.860000 	 2.270309 
0.050000 	 0.870000 	 2.291077 
0.050000 	 0.880000 	 2.321391 
0.050000 	 0.890000 	 2.358155 
0.050000 	 0.900000 	 2.394654 
0.050000 	 0.910000 	 2.417995 
0.050000 	 0.920000 	 2.404559 
0.050000 	 0.930000 	 2.311506 
0.050000 	 0.940000 	 2.059736 
0.050000 	 0.950000 	 1.496909 
0.050000 	 0.960000 	 0.310364 
0.050000 	 0.970000 	 -2.192594 
0.050000 	 0.980000 	 -7.650627 
0.050000 	 0.990000 	 -19.922354 
0.050000 	 1.000000 	 -46.052441 
0.050000 	 1.010000 	 -83.808861 
0.060000 	 0.010000 	 -0.039580 
0.060000 	 0.020000 	 -0.015873 
0.060000 	 0.030000 	 0.005761 
0.060000 	 0.040000 	 0.026071 
0.060000 	 0.050000 	 0.045679 
0.060000 	 0.060000 	 0.065143 
0.060000 	 0.070000 	 0.084963 
0.060000 	 0.080000 	 0.105580 
0.060000 	 0.090000 	 0.127364 
0.060000 	 0.100000 	 0.150616 
0.060000 	 0.110000 	 0.175570 
0.060000 	 0.120000 	 0.202396 
0.060000 	 0.130000 	 0.231209 
0.060000 	 0.140000 	 0.262076 
0.060000 	 0.150000 	 0.295023 
0.060000 	 0.160000 	 0.330040 
0.060000 	 0.170000 	 0.367089 
0.060000 	 0.180000 	 0.406111 
0.060000 	 0.190000 	 0.447025 
0.060000 	 0.200000 	 0.489740 
0.060000 	 0.210000 	 0.534153 
0.060000 	 0.220000 	 0.580153 
0.060000 	 0.230000 	 0.627626 
0.060000 	 0.240000 	 0.676457 
0.060000 	 0.250000 	 0.726528 
0.060000 	 0.260000 	 0.777727 
0.060000 	 0.270000 	 0.829940 
0.060000 	 0.280000 	 0.883062 
0.060000 	 0.290000 	 0.936989 
0.060000 	 0.300000 	 0.991623 
0.060000 	 0.310000 	 1.046871 
0.060000 	 0.320000 	 1.102643 
0.060000 	 0.330000 	 1.158856 
0.060000 	 0.340000 	 1.215428 
0.060000 	 0.350000 	 1.272281 
0.060000 	 0.360000 	 1.329336 
0.060000 	 0.370000 	 1.386519 
0.060000 	 0.380000 	 1.443750 
0.060000 	 0.390000 	 1.500950 
0.060000 	 0.400000 	 1.558034 
0.060000 	 0.410000 	 1.614915 
0.060000 	 0.420000 	 1.671498 
0.060000 	 0.430000 	 1.727680 
0.060000 	 0.440000 	 1.783350 
0.060000 	 0.450000 	 1.838388 
0.060000 	 0.460000 	 1.892664 
0.060000 	 0.470000 	 1.946036 
0.060000 	 0.480000 	 1.998352 
0.060000 	 0.490000 	 2.049449 
0.060000 	 0.500000 	 2.099153 
0.060000 	 0.510000 	 2.147281 
0.060000 	 0.520000 	 2.193641 
0.060000 	 0.530000 	 2.238032 
0.060000 	 0.540000 	 2.280248 
0.060000 	 0.550000 	 2.320081 
0.060000 	 0.560000 	 2.357319 
0.060000 	 0.570000 	 2.391752 
0.060000 	 0.580000 	 2.423177 
0.060000 	 0.590000 	 2.451395 
0.060000 	 0.600000 	 2.476220 
0.060000 	 0.610000 	 2.497484 
0.060000 	 0.620000 	 2.515035 
0.060000 	 0.630000 	 2.528745 
0.060000 	 0.640000 	 2.538514 
0.060000 	 0.650000 	 2.544275 
0.060000 	 0.660000 	 2.545996 
0.060000 	 0.670000 	 2.543687 
0.060000 	 0.680000 	 2.537399 
0.060000 	 0.690000 	 2.527234 
0.060000 	 0.700000 	 2.513345 
0.060000 	 0.710000 	 2.495944 
0.060000 	 0.720000 	 2.475296 
0.060000 	 0.730000 	 2.451737 
0.060000 	 0.740000 	 2.425664 
0.060000 	 0.750000 	 2.397547 
0.060000 	 0.760000 	 2.367929 
0.060000 	 0.770000 	 2.337430 
0.060000 	 0.780000 	 2.306746 
0.060000 	 0.790000 	 2.276651 
0.060000 	 0.800000 	 2.247989 
0.060000 	 0.810000 	 2.221658 
0.060000 	 0.820000 	 2.198586 
0.060000 	 0.830000 	 2.179672 
0.060000 	 0.840000 	 2.165703 
0.060000 	 0.850000 	 2.157199 
0.060000 	 0.860000 	 2.154176 
0.060000 	 0.870000 	 2.155746 
0.060000 	 0.880000 	 2.159480 
0.060000 	 0.890000 	 2.160357 
0.060000 	 0.900000 	 2.149015 
0.060000 	 0.910000 	 2.108736 
0.060000 	 0.920000 	 2.010068 
0.060000 	 0.930000 	 1.800750 
0.060000 	 0.940000 	 1.385821 
0.060000 	 0.950000 	 0.585945 
0.060000 	 0.960000 	 -0.954841 
0.060000 	 0.970000 	 -3.979663 
0.060000 	 0.980000 	 -10.076614 
0.060000 	 0.990000 	 -22.393938 
0.060000 	 1.000000 	 -44.915684 
0.060000 	 1.010000 	 -70.951126 
0.070000 	 0.010000 	 -0.044478 
0.070000 	 0.020000 	 -0.015363 
0.070000 	 0.030000 	 0.011208 
0.070000 	 0.040000 	 0.036014 
0.070000 	 0.050000 	 0.059691 
0.070000 	 0.060000 	 0.082780 
0.070000 	 0.070000 	 0.105746 
0.070000 	 0.080000 	 0.128981 
0.070000 	 0.090000 	 0.152808 
0.070000 	 0.100000 	 0.177483 
0.070000 	 0.110000 	 0.203196 
0.070000 	 0.120000 	 0.230082 
0.070000 	 0.130000 	 0.258222 
0.070000 	 0.140000 	 0.287655 
0.070000 	 0.150000 	 0.318382 
0.070000 	 0.160000 	 0.350375 
0.070000 	 0.170000 	 0.383581 
0.070000 	 0.180000 	 0.417933 
0.070000 	 0.190000 	 0.453346 
0.070000 	 0.200000 	 0.489731 
0.070000 	 0.210000 	 0.526994 
0.070000 	 0.220000 	 0.565038 
0.070000 	 0.230000 	 0.603769 
0.070000 	 0.240000 	 0.643099 
0.070000 	 0.250000 	 0.682944 
0.070000 	 0.260000 	 0.723226 
0.070000 	 0.270000 	 0.763880 
0.070000 	 0.280000 	 0.804846 
0.070000 	 0.290000 	 0.846075 
0.070000 	 0.300000 	 0.887528 
0.070000 	 0.310000 	 0.929173 
0.070000 	 0.320000 	 0.970990 
0.070000 	 0.330000 	 1.012963 
0.070000 	 0.340000 	 1.055086 
0.070000 	 0.350000 	 1.097357 
0.070000 	 0.360000 	 1.139778 
0.070000 	 0.370000 	 1.182354 
0.070000 	 0.380000 	 1.225091 
0.070000 	 0.390000 	 1.267996 
0.070000 	 0.400000 	 1.311072 
0.070000 	 0.410000 	 1.354316 
0.070000 	 0.420000 	 1.397725 
0.070000 	 0.430000 	 1.441281 
0.070000 	 0.440000 	 1.484963 
0.070000 	 0.450000 	 1.528736 
0.070000 	 0.460000 	 1.572552 
0.070000 	 0.470000 	 1.616352 
0.070000 	 0.480000 	 1.660061 
0.070000 	 0.490000 	 1.703589 
0.070000 	 0.500000 	 1.746829 
0.070000 	 0.510000 	 1.789659 
0.070000 	 0.520000 	 1.831939 
0.070000 	 0.530000 	 1.873516 
0.070000 	 0.540000 	 1.914219 
0.070000 	 0.550000 	 1.953863 
0.070000 	 0.560000 	 1.992252 
0.070000 	 0.570000 	 2.029179 
0.070000 	 0.580000 	 2.064429 
0.070000 	 0.590000 	 2.097780 
0.070000 	 0.600000 	 2.129012 
0.070000 	 0.610000 	 2.157901 
0.070000 	 0.620000 	 2.184234 
0.070000 	 0.630000 	 2.207804 
0.070000 	 0.640000 	 2.228420 
0.070000 	 0.650000 	 2.245912 
0.070000 	 0.660000 	 2.260132 
0.070000 	 0.670000 	 2.270963 
0.070000 	 0.680000 	 2.278323 
0.070000 	 0.690000 	 2.282170 
0.070000 	 0.700000 	 2.282508 
0.070000 	 0.710000 	 2.279391 
0.070000 	 0.720000 	 2.272926 
0.070000 	 0.730000 	 2.263285 
0.070000 	 0.740000 	 2.250699 
0.070000 	 0.750000 	 2.235470 
0.070000 	 0.760000 	 2.217969 
0.070000 	 0.770000 	 2.198640 
0.070000 	 0.780000 	 2.177995 
0.070000 	 0.790000 	 2.156614 
0.070000 	 0.800000 	 2.135131 
0.070000 	 0.810000 	 2.114214 
0.070000 	 0.820000 	 2.094527 
0.070000 	 0.830000 	 2.076669 
0.070000 	 0.840000 	 2.061073 
0.070000 	 0.850000 	 2.047843 
0.070000 	 0.860000 	 2.036486 
0.070000 	 0.870000 	 2.025493 
0.070000 	 0.880000 	 2.011626 
0.070000 	 0.890000 	 1.988740 
0.070000 	 0.900000 	 1.945767 
0.070000 	 0.910000 	 1.863164 
0.070000 	 0.920000 	 1.706532 
0.070000 	 0.930000 	 1.414791 
0.070000 	 0.940000 	 0.877549 
0.070000 	 0.950000 	 -0.109708 
0.070000 	 0.960000 	 -1.936821 
0.070000 	 0.970000 	 -5.363007 
0.070000 	 0.980000 	 -11.842361 
0.070000 	 0.990000 	 -23.785156 
0.070000 	 1.000000 	 -43.038013 
0.070000 	 1.010000 	 -61.717072 
0.080000 	 0.010000 	 -0.045870 
0.080000 	 0.020000 	 -0.012323 
0.080000 	 0.030000 	 0.018423 
0.080000 	 0.040000 	 0.047098 
0.080000 	 0.050000 	 0.074306 
0.080000 	 0.060000 	 0.100552 
0.080000 	 0.070000 	 0.126262 
0.080000 	 0.080000 	 0.151783 
0.080000 	 0.090000 	 0.177397 
0.080000 	 0.100000 	 0.203319 
0.080000 	 0.110000 	 0.229705 
0.080000 	 0.120000 	 0.256658 
0.080000 	 0.130000 	 0.284232 
0.080000 	 0.140000 	 0.312446 
0.080000 	 0.150000 	 0.341282 
0.080000 	 0.160000 	 0.370702 
0.080000 	 0.170000 	 0.400645 
0.080000 	 0.180000 	 0.431038 
0.080000 	 0.190000 	 0.461801 
0.080000 	 0.200000 	 0.492850 
0.080000 	 0.210000 	 0.524099 
0.080000 	 0.220000 	 0.555469 
0.080000 	 0.230000 	 0.586884 
0.080000 	 0.240000 	 0.618277 
0.080000 	 0.250000 	 0.649592 
0.080000 	 0.260000 	 0.680783 
0.080000 	 0.270000 	 0.711814 
0.080000 	 0.280000 	 0.742664 
0.080000 	 0.290000 	 0.773322 
0.080000 	 0.300000 	 0.803790 
0.080000 	 0.310000 	 0.834081 
0.080000 	 0.320000 	 0.864221 
0.080000 	 0.330000 	 0.894242 
0.080000 	 0.340000 	 0.924189 
0.080000 	 0.350000 	 0.954111 
0.080000 	 0.360000 	 0.984066 
0.080000 	 0.370000 	 1.014115 
0.080000 	 0.380000 	 1.044323 
0.080000 	 0.390000 	 1.074755 
0.080000 	 0.400000 	 1.105476 
0.080000 	 0.410000 	 1.136550 
0.080000 	 0.420000 	 1.168035 
0.080000 	 0.430000 	 1.199983 
0.080000 	 0.440000 	 1.232439 
0.080000 	 0.450000 	 1.265438 
0.080000 	 0.460000 	 1.299003 
0.080000 	 0.470000 	 1.333142 
0.080000 	 0.480000 	 1.367851 
0.080000 	 0.490000 	 1.403107 
0.080000 	 0.500000 	 1.438872 
0.080000 	 0.510000 	 1.475087 
0.080000 	 0.520000 	 1.511674 
0.080000 	 0.530000 	 1.548535 
0.080000 	 0.540000 	 1.585551 
0.080000 	 0.550000 	 1.622584 
0.080000 	 0.560000 	 1.659476 
0.080000 	 0.570000 	 1.696048 
0.080000 	 0.580000 	 1.732106 
0.080000 	 0.590000 	 1.767439 
0.080000 	 0.600000 	 1.801824 
0.080000 	 0.610000 	 1.835027 
0.080000 	 0.620000 	 1.866805 
0.080000 	 0.630000 	 1.896915 
0.080000 	 0.640000 	 1.925112 
0.080000 	 0.650000 	 1.951159 
0.080000 	 0.660000 	 1.974831 
0.080000 	 0.670000 	 1.995916 
0.080000 	 0.680000 	 2.014228 
0.080000 	 0.690000 	 2.029608 
0.080000 	 0.700000 	 2.041933 
0.080000 	 0.710000 	 2.051118 
0.080000 	 0.720000 	 2.057127 
0.080000 	 0.730000 	 2.059977 
0.080000 	 0.740000 	 2.059740 
0.080000 	 0.750000 	 2.056553 
0.080000 	 0.760000 	 2.050618 
0.080000 	 0.770000 	 2.042201 
0.080000 	 0.780000 	 2.031637 
0.080000 	 0.790000 	 2.019318 
0.080000 	 0.800000 	 2.005683 
0.080000 	 0.810000 	 1.991197 
0.080000 	 0.820000 	 1.976311 
0.080000 	 0.830000 	 1.961396 
0.080000 	 0.840000 	 1.946645 
0.080000 	 0.850000 	 1.931904 
0.080000 	 0.860000 	 1.916400 
0.080000 	 0.870000 	 1.898285 
0.080000 	 0.880000 	 1.873872 
0.080000 	 0.890000 	 1.836295 
0.080000 	 0.900000 	 1.773168 
0.080000 	 0.910000 	 1.662420 
0.080000 	 0.920000 	 1.464806 
0.080000 	 0.930000 	 1.110383 
0.080000 	 0.940000 	 0.473788 
0.080000 	 0.950000 	 -0.671356 
0.080000 	 0.960000 	 -2.736528 
0.080000 	 0.970000 	 -6.465367 
0.080000 	 0.980000 	 -13.131031 
0.080000 	 0.990000 	 -24.479509 
0.080000 	 1.000000 	 -40.963001 
0.080000 	 1.010000 	 -54.913528 
0.090000 	 0.010000 	 -0.043610 
0.090000 	 0.020000 	 -0.006494 
0.090000 	 0.030000 	 0.027718 
0.090000 	 0.040000 	 0.059672 
0.090000 	 0.050000 	 0.089910 
0.090000 	 0.060000 	 0.118886 
0.090000 	 0.070000 	 0.146979 
0.090000 	 0.080000 	 0.174496 
0.090000 	 0.090000 	 0.201677 
0.090000 	 0.100000 	 0.228703 
0.090000 	 0.110000 	 0.255698 
0.090000 	 0.120000 	 0.282740 
0.090000 	 0.130000 	 0.309863 
0.090000 	 0.140000 	 0.337069 
0.090000 	 0.150000 	 0.364329 
0.090000 	 0.160000 	 0.391597 
0.090000 	 0.170000 	 0.418809 
0.090000 	 0.180000 	 0.445895 
0.090000 	 0.190000 	 0.472777 
0.090000 	 0.200000 	 0.499379 
0.090000 	 0.210000 	 0.525630 
0.090000 	 0.220000 	 0.551461 
0.090000 	 0.230000 	 0.576815 
0.090000 	 0.240000 	 0.601645 
0.090000 	 0.250000 	 0.625914 
0.090000 	 0.260000 	 0.649601 
0.090000 	 0.270000 	 0.672694 
0.090000 	 0.280000 	 0.695199 
0.090000 	 0.290000 	 0.717132 
0.090000 	 0.300000 	 0.738525 
0.090000 	 0.310000 	 0.759419 
0.090000 	 0.320000 	 0.779872 
0.090000 	 0.330000 	 0.799948 
0.090000 	 0.340000 	 0.819724 
0.090000 	 0.350000 	 0.839285 
0.090000 	 0.360000 	 0.858724 
0.090000 	 0.370000 	 0.878138 
0.090000 	 0.380000 	 0.897632 
0.090000 	 0.390000 	 0.917310 
0.090000 	 0.400000 	 0.937281 
0.090000 	 0.410000 	 0.957652 
0.090000 	 0.420000 	 0.978527 
0.090000 	 0.430000 	 1.000006 
0.090000 	 0.440000 	 1.022186 
0.090000 	 0.450000 	 1.045151 
0.090000 	 0.460000 	 1.068981 
0.090000 	 0.470000 	 1.093740 
0.090000 	 0.480000 	 1.119482 
0.090000 	 0.490000 	 1.146243 
0.090000 	 0.500000 	 1.174045 
0.090000 	 0.510000 	 1.202889 
0.090000 	 0.520000 	 1.232757 
0.090000 	 0.530000 	 1.263611 
0.090000 	 0.540000 	 1.295391 
0.090000 	 0.550000 	 1.328012 
0.090000 	 0.560000 	 1.361367 
0.090000 	 0.570000 	 1.395325 
0.090000 	 0.580000 	 1.429733 
0.090000 	 0.590000 	 1.464414 
0.090000 	 0.600000 	 1.499170 
0.090000 	 0.610000 	 1.533782 
0.090000 	 0.620000 	 1.568016 
0.090000 	 0.630000 	 1.601623 
0.090000 	 0.640000 	 1.634340 
0.090000 	 0.650000 	 1.665901 
0.090000 	 0.660000 	 1.696035 
0.090000 	 0.670000 	 1.724474 
0.090000 	 0.680000 	 1.750961 
0.090000 	 0.690000 	 1.775251 
0.090000 	 0.700000 	 1.797122 
0.090000 	 0.710000 	 1.816379 
0.090000 	 0.720000 	 1.832862 
0.090000 	 0.730000 	 1.846454 
0.090000 	 0.740000 	 1.857085 
0.090000 	 0.750000 	 1.864736 
0.090000 	 0.760000 	 1.869449 
0.090000 	 0.770000 	 1.871325 
0.090000 	 0.780000 	 1.870525 
0.090000 	 0.790000 	 1.867264 
0.090000 	 0.800000 	 1.861801 
0.090000 	 0.810000 	 1.854420 
0.090000 	 0.820000 	 1.845389 
0.090000 	 0.830000 	 1.834903 
0.090000 	 0.840000 	 1.822986 
0.090000 	 0.850000 	 1.809322 
0.090000 	 0.860000 	 1.792982 
0.090000 	 0.870000 	 1.771942 
0.090000 	 0.880000 	 1.742237 
0.090000 	 0.890000 	 1.696446 
0.090000 	 0.900000 	 1.620989 
0.090000 	 0.910000 	 1.491285 
0.090000 	 0.920000 	 1.263185 
0.090000 	 0.930000 	 0.857996 
0.090000 	 0.940000 	 0.136597 
0.090000 	 0.950000 	 -1.144591 
0.090000 	 0.960000 	 -3.406208 
0.090000 	 0.970000 	 -7.352584 
0.090000 	 0.980000 	 -14.060330 
0.090000 	 0.990000 	 -24.723383 
0.090000 	 1.000000 	 -38.930305 
0.090000 	 1.010000 	 -49.754894 
0.100000 	 0.010000 	 -0.037737 
0.100000 	 0.020000 	 0.002227 
0.100000 	 0.030000 	 0.039288 
0.100000 	 0.040000 	 0.073994 
0.100000 	 0.050000 	 0.106811 
0.100000 	 0.060000 	 0.138134 
0.100000 	 0.070000 	 0.168292 
0.100000 	 0.080000 	 0.197548 
0.100000 	 0.090000 	 0.226105 
0.100000 	 0.100000 	 0.254112 
0.100000 	 0.110000 	 0.281666 
0.100000 	 0.120000 	 0.308823 
0.100000 	 0.130000 	 0.335600 
0.100000 	 0.140000 	 0.361987 
0.100000 	 0.150000 	 0.387949 
0.100000 	 0.160000 	 0.413434 
0.100000 	 0.170000 	 0.438379 
0.100000 	 0.180000 	 0.462717 
0.100000 	 0.190000 	 0.486378 
0.100000 	 0.200000 	 0.509294 
0.100000 	 0.210000 	 0.531404 
0.100000 	 0.220000 	 0.552654 